 DBCSR| CPU Multiplication driver                                           XSMM (U)
 DBCSR| Multrec recursion limit                                              512 (U)
 DBCSR| Multiplication stack size                                           1000 (D)
 DBCSR| Maximum elements for images                                    UNLIMITED (U)
 DBCSR| Multiplicative factor virtual images                                   1 (U)
 DBCSR| Use multiplication densification                                       T (D)
 DBCSR| Multiplication size stacks                                             3 (U)
 DBCSR| Use memory pool for CPU allocation                                     F (U)
 DBCSR| Number of 3D layers                                               SINGLE (U)
 DBCSR| Use MPI memory allocation                                              F (U)
 DBCSR| Use RMA algorithm                                                      F (U)
 DBCSR| Use Communication thread                                               T (U)
 DBCSR| Communication thread load                                             87 (D)
 DBCSR| MPI: My process id                                                     0
 DBCSR| MPI: Number of processes                                               1
 DBCSR| OMP: Current number of threads                                         1
 DBCSR| OMP: Max number of threads                                             1
 DBCSR| Split modifier for TAS multiplication algorithm                  1.0E+00 (U)


  **** **** ******  **  PROGRAM STARTED AT               2026-05-23 22:46:19.939
 ***** ** ***  *** **   PROGRAM STARTED ON                            spark-c86c
 **    ****   ******    PROGRAM STARTED BY                              kuehne88
 ***** **    ** ** **   PROGRAM PROCESS ID                               2227074
  **** **  *******  **  PROGRAM STARTED IN /home/kuehne88/periodic-gfn2-benchmar
                                           ks/X23b/runs/molecule_geoopt/GFN2/cyt
                                           osine_GFN2_mol_geoopt

 CP2K| version string:                 CP2K version 2026.1 (Development Version)
 CP2K| source code revision number:                                   0622d442e4
 CP2K| cp2kflags: omp fftw3 libxc parallel scalapack mpi_f08 xsmm spglib libdftd
 CP2K|            4 dftd4_v3 mctc-lib tblite
 CP2K| is freely available from                            https://www.cp2k.org/
 CP2K| Program compiled at                                   2026-05-23 22:05:08
 CP2K| Program compiled on                                            spark-c86c
 CP2K| Program compiled for                                              aarch64
 CP2K| Data directory path    /home/kuehne88/cp2k-master-tblite-20260523/install
 CP2K| Input file name                              cytosine_GFN2_mol_geoopt.inp

 GLOBAL| Force Environment number                                              1
 GLOBAL| Basis set file name                                           BASIS_SET
 GLOBAL| Potential file name                                           POTENTIAL
 GLOBAL| MM Potential file name                                     MM_POTENTIAL
 GLOBAL| Coordinate file name                                      __STD_INPUT__
 GLOBAL| Method name                                                        CP2K
 GLOBAL| Project name                                   cytosine_GFN2_mol_geoopt
 GLOBAL| Run type                                                        GEO_OPT
 GLOBAL| FFT library                                                       FFTW3
 GLOBAL| Diagonalization library                                       ScaLAPACK
 GLOBAL| Cholesky decomposition library                                ScaLAPACK
 GLOBAL| DGEMM library                                                      BLAS
 GLOBAL| Direct generalized diagonalization requested                          F
 GLOBAL| Orthonormality check for eigenvectors                          DISABLED
 GLOBAL| Matrix multiplication library                                 ScaLAPACK
 GLOBAL| All-to-all communication in single precision                          F
 GLOBAL| FFTs using library dependent lengths                                  F
 GLOBAL| Grid backend                                                       AUTO
 GLOBAL| Global print level                                                  LOW
 GLOBAL| MPI I/O enabled                                                       T
 GLOBAL| Total number of message passing processes                             1
 GLOBAL| Number of distributed systems (nodes)                                 1
 GLOBAL| Number of threads for this process                                    1
 GLOBAL| This output is from process                                           0
 GLOBAL| OpenMP stack size per thread (OMP_STACKSIZE)                    default
 GLOBAL| CPU model name                                                  UNKNOWN
 GLOBAL| CPUID                                                              2200
 GLOBAL| Compiled for CPUID                                                 2000

 *** HINT in environment.F:970 :: The compiler target flags (arm_arch64)   ***
 *** used to build this binary cannot exploit all extensions of this CPU   ***
 *** model (arm_sve256). Consider compiler target flags as part of FCFLAGS ***
 *** and CFLAGS (ARCH file).                                               ***


 MEMORY| system memory details [Kb]
 MEMORY|                        rank 0           min           max       average
 MEMORY| MemTotal            125508532     125508532     125508532     125508532
 MEMORY| MemFree             105813236     105813236     105813236     105813236
 MEMORY| Buffers                866144        866144        866144        866144
 MEMORY| Cached               13217052      13217052      13217052      13217052
 MEMORY| Slab                  1564704       1564704       1564704       1564704
 MEMORY| SReclaimable           888664        888664        888664        888664
 MEMORY| MemLikelyFree       120785096     120785096     120785096     120785096


 GENERATE|  Preliminary Number of Bonds generated:                             0
 GENERATE|  Achieved consistency in connectivity generation.


                  #####   #####        #     #   #     #       #          
                 #     # #     #      #    ##### #     #   # #####  ####  
                 #     # #           #       #   ###   #       #   #    # 
                 #     #  #####     #        #   #  #  #   #   #   ###### 
                 #   # #       #   #         #   #   # #   #   #   #      
                 #    #  #     #  #          #   #  #  # # #   #    #   # 
                  #### #  #####  #           #   ###   ##  #   #     ###  

                                   GFN2-xTB  
                                 Version 0.0                       
                            Johann V. Pototschnig                  



 TOTAL NUMBERS AND MAXIMUM NUMBERS

  Total number of            - Atomic kinds:                                   4
                             - Atoms:                                         13
                             - Shell sets:                                    21
                             - Shells:                                        21
                             - Primitive Cartesian functions:                 79
                             - Cartesian basis functions:                     37
                             - Spherical basis functions:                     37

  Maximum angular momentum of the orbital basis functions:                     1


 SCF PARAMETERS         Density guess:                                     MOPAC
                        --------------------------------------------------------
                        max_scf:                                             300
                        max_scf_history:                                       0
                        max_diis:                                              4
                        --------------------------------------------------------
                        eps_scf:                                        1.00E-09
                        eps_scf_history:                                0.00E+00
                        eps_diis:                                       1.00E-01
                        eps_eigval:                                     1.00E-05
                        --------------------------------------------------------
                        level_shift [a.u.]:                             0.000000
                        added MOs                                        16    0
                        --------------------------------------------------------
                        Mixing method:                           DIRECT_P_MIXING
                        --------------------------------------------------------
                        Smear method:                                FERMI_DIRAC
                        Electronic temperature [K]:                        300.0
                        Electronic temperature [a.u.]:                  9.50E-04
                        Accuracy threshold:                             1.00E-06
                        --------------------------------------------------------
                        No outer SCF

 BFGS| Use rational function optimization for step estimation:                NO
 BFGS| Use model Hessian for initial guess:                                  YES
 BFGS| Restart Hessian:                                                       NO
 BFGS| Trust radius:                                                       0.472

 *******************************************************************************
 ***                     STARTING GEOMETRY OPTIMIZATION                      ***
 ***                                   BFGS                                  ***
 *******************************************************************************

 Extrapolation method: initial_guess

 Number of electrons:                                                         42
 Number of occupied orbitals:                                                 21
 Number of molecular orbitals:                                                37

 Number of orbital functions:                                                 37
 Number of independent orbital functions:                                     37


 SCF WAVEFUNCTION OPTIMIZATION

  Step     Update method      Time    Convergence         Total energy    Change
  ------------------------------------------------------------------------------
     1 TBLite/Diag 0.40E+00    0.0     1.05703327       -23.7121559793 -2.37E+01
     2 TBLite/Diag 0.40E+00    0.0     0.33794005       -23.9429647062 -2.31E-01
     3 TBLite/Diag 0.40E+00    0.0     0.18624149       -23.9507969456 -7.83E-03
     4 TBLite/Diag 0.40E+00    0.0     0.15862410       -23.9575562696 -6.76E-03
     5 TBLite/Diag 0.40E+00    0.0     0.07680584       -23.9614868693 -3.93E-03
     6 TBLite/Diag 0.40E+00    0.0     0.01718999       -23.9617533055 -2.66E-04
     7 TBLite/Diag 0.40E+00    0.0     0.00806175       -23.9618547526 -1.01E-04
     8 TBLite/Diag 0.40E+00    0.0     0.00199193       -23.9618573043 -2.55E-06
     9 TBLite/Diag 0.40E+00    0.0     0.00083735       -23.9618579343 -6.30E-07
    10 TBLite/Diag 0.40E+00    0.0     0.00025426       -23.9618580586 -1.24E-07
    11 TBLite/Diag 0.40E+00    0.0     0.00006149       -23.9618580608 -2.18E-09
    12 TBLite/Diag 0.40E+00    0.0     0.00002971       -23.9618580636 -2.83E-09
    13 TBLite/Diag 0.40E+00    0.0     0.00000741       -23.9618580638 -1.38E-10
    14 TBLite/Diag 0.40E+00    0.0     0.00000197       -23.9618580638 -3.00E-12
    15 TBLite/Diag 0.40E+00    0.0     0.00000137       -23.9618580638  6.39E-14
    16 TBLite/Diag 0.40E+00    0.0     0.00000070       -23.9618580638 -5.15E-13
    17 TBLite/Diag 0.40E+00    0.0     0.00000009       -23.9618580638  7.11E-15
    18 TBLite/Diag 0.40E+00    0.0     0.00000006       -23.9618580638 -3.20E-14
    19 TBLite/Diag 0.40E+00    0.0     0.00000001       -23.9618580638  3.55E-15
    20 TBLite/Diag 0.40E+00    0.0     4.1847E-09       -23.9618580638  0.00E+00
    21 TBLite/Diag 0.40E+00    0.0     3.5707E-10       -23.9618580638 -3.55E-15

  *** SCF run converged in    21 steps ***


  Core Hamiltonian energy:                                    -24.32672406284729
  Repulsive potential energy:                                   0.29679776572204
  Electrostatic energy:                                         0.07757063089101
  Self-consistent dispersion energy:                           -0.00951541992959
  Non-self consistent dispersion energy:                        0.00001302237845
  Correction for halogen bonding:                               0.00000000000000
  Electronic entropic energy:                                  -0.00000000000000
  Fermi energy:                                                -0.29603231020271

  Total energy:                                               -23.96185806378538
  Total energy (extrapolated to T->0):                        -23.96185806378538

 ENERGY| Total FORCE_EVAL ( QS ) energy [hartree]            -23.961858063785382

 OPT| **************************************************************************
 OPT| Step number                                                              0
 OPT| Optimization method                                                   BFGS
 OPT| Total energy [hartree]                                      -23.9618580638
 OPT| Used time [s]                                                        0.026
 OPT| **************************************************************************
 OPT| Estimated peak process memory [MiB]                                    163

 --------------------------
 OPTIMIZATION STEP:      1
 --------------------------

 Extrapolation method: ASPC

 Number of electrons:                                                         42
 Number of occupied orbitals:                                                 21
 Number of molecular orbitals:                                                37

 Number of orbital functions:                                                 37
 Number of independent orbital functions:                                     37


 SCF WAVEFUNCTION OPTIMIZATION

  Step     Update method      Time    Convergence         Total energy    Change
  ------------------------------------------------------------------------------
     1 TBLite/Diag 0.40E+00    0.0     0.02680508       -23.9633285187 -2.40E+01
     2 TBLite/Diag 0.40E+00    0.0     0.00768802       -23.9633740510 -4.55E-05
     3 TBLite/Diag 0.40E+00    0.0     0.00588966       -23.9633761011 -2.05E-06
     4 TBLite/Diag 0.40E+00    0.0     0.00421800       -23.9633836359 -7.53E-06
     5 TBLite/Diag 0.40E+00    0.0     0.00144879       -23.9633854802 -1.84E-06
     6 TBLite/Diag 0.40E+00    0.0     0.00019763       -23.9633855294 -4.93E-08
     7 TBLite/Diag 0.40E+00    0.0     0.00004543       -23.9633855341 -4.62E-09
     8 TBLite/Diag 0.40E+00    0.0     0.00001687       -23.9633855345 -4.23E-10
     9 TBLite/Diag 0.40E+00    0.0     0.00000679       -23.9633855345 -4.16E-11
    10 TBLite/Diag 0.40E+00    0.0     0.00000294       -23.9633855345 -5.97E-12
    11 TBLite/Diag 0.40E+00    0.0     0.00000224       -23.9633855345 -6.49E-12
    12 TBLite/Diag 0.40E+00    0.0     0.00000019       -23.9633855345 -3.55E-14
    13 TBLite/Diag 0.40E+00    0.0     0.00000005       -23.9633855345  0.00E+00
    14 TBLite/Diag 0.40E+00    0.0     0.00000002       -23.9633855345 -3.55E-15
    15 TBLite/Diag 0.40E+00    0.0     6.5960E-09       -23.9633855345  1.07E-14
    16 TBLite/Diag 0.40E+00    0.0     5.9788E-10       -23.9633855345 -1.42E-14

  *** SCF run converged in    16 steps ***


  Core Hamiltonian energy:                                    -24.34334528691688
  Repulsive potential energy:                                   0.31267309572355
  Electrostatic energy:                                         0.07683185230533
  Self-consistent dispersion energy:                           -0.00955797181594
  Non-self consistent dispersion energy:                        0.00001277615897
  Correction for halogen bonding:                               0.00000000000000
  Electronic entropic energy:                                  -0.00000000000000
  Fermi energy:                                                -0.29304580423530

  Total energy:                                               -23.96338553454496
  Total energy (extrapolated to T->0):                        -23.96338553454496

 ENERGY| Total FORCE_EVAL ( QS ) energy [hartree]            -23.963385534544958

 OPT| **************************************************************************
 OPT| Step number                                                              1
 OPT| Optimization method                                                   BFGS
 OPT| Total energy [hartree]                                      -23.9633855345
 OPT| Effective energy change [hartree]                            -0.0015274708
 OPT| Predicted energy change [hartree]                            -0.0012388513
 OPT| Scaling factor                                                0.0000000000
 OPT| Step size                                                     0.0500999021
 OPT| Trust radius                                                  0.4724315332
 OPT| Decrease in energy                                                     YES
 OPT| Used time [s]                                                        0.021
 OPT|
 OPT| Maximum step size                                             0.0500999021
 OPT| Convergence limit for maximum step size                       0.0030000000
 OPT| Maximum step size is converged                                          NO
 OPT|
 OPT| RMS step size                                                 0.0145274070
 OPT| Convergence limit for RMS step size                           0.0015000000
 OPT| RMS step size is converged                                              NO
 OPT|
 OPT| Maximum gradient                                              0.0066618039
 OPT| Convergence limit for maximum gradient                        0.0004500000
 OPT| Maximum gradient is converged                                           NO
 OPT|
 OPT| RMS gradient                                                  0.0021263288
 OPT| Convergence limit for RMS gradient                            0.0003000000
 OPT| RMS gradient is converged                                               NO
 OPT| **************************************************************************
 OPT| Estimated peak process memory after this step [MiB]                    163

 --------------------------
 OPTIMIZATION STEP:      2
 --------------------------

 Extrapolation method: ASPC

 Number of electrons:                                                         42
 Number of occupied orbitals:                                                 21
 Number of molecular orbitals:                                                37

 Number of orbital functions:                                                 37
 Number of independent orbital functions:                                     37


 SCF WAVEFUNCTION OPTIMIZATION

  Step     Update method      Time    Convergence         Total energy    Change
  ------------------------------------------------------------------------------
     1 TBLite/Diag 0.40E+00    0.0     0.01341713       -23.9635425557 -2.40E+01
     2 TBLite/Diag 0.40E+00    0.0     0.00333246       -23.9635510988 -8.54E-06
     3 TBLite/Diag 0.40E+00    0.0     0.00222419       -23.9635515803 -4.82E-07
     4 TBLite/Diag 0.40E+00    0.0     0.00167281       -23.9635525431 -9.63E-07
     5 TBLite/Diag 0.40E+00    0.0     0.00059177       -23.9635528459 -3.03E-07
     6 TBLite/Diag 0.40E+00    0.0     0.00009426       -23.9635528542 -8.28E-09
     7 TBLite/Diag 0.40E+00    0.0     0.00002325       -23.9635528553 -1.11E-09
     8 TBLite/Diag 0.40E+00    0.0     0.00000952       -23.9635528553 -4.75E-11
     9 TBLite/Diag 0.40E+00    0.0     0.00000371       -23.9635528554 -2.70E-11
    10 TBLite/Diag 0.40E+00    0.0     0.00000102       -23.9635528554 -2.23E-12
    11 TBLite/Diag 0.40E+00    0.0     0.00000062       -23.9635528554 -2.77E-13
    12 TBLite/Diag 0.40E+00    0.0     0.00000005       -23.9635528554 -1.78E-14
    13 TBLite/Diag 0.40E+00    0.0     0.00000002       -23.9635528554 -7.11E-15
    14 TBLite/Diag 0.40E+00    0.0     5.0536E-09       -23.9635528554 -7.11E-15
    15 TBLite/Diag 0.40E+00    0.0     4.2901E-09       -23.9635528554  1.42E-14
    16 TBLite/Diag 0.40E+00    0.0     2.4658E-10       -23.9635528554  3.55E-15

  *** SCF run converged in    16 steps ***


  Core Hamiltonian energy:                                    -24.34966349339208
  Repulsive potential energy:                                   0.31913948429284
  Electrostatic energy:                                         0.07653474561610
  Self-consistent dispersion energy:                           -0.00957632539320
  Non-self consistent dispersion energy:                        0.00001273350403
  Correction for halogen bonding:                               0.00000000000000
  Electronic entropic energy:                                  -0.00000000000000
  Fermi energy:                                                -0.29173668725017

  Total energy:                                               -23.96355285537229
  Total energy (extrapolated to T->0):                        -23.96355285537229

 ENERGY| Total FORCE_EVAL ( QS ) energy [hartree]            -23.963552855372292

 OPT| **************************************************************************
 OPT| Step number                                                              2
 OPT| Optimization method                                                   BFGS
 OPT| Total energy [hartree]                                      -23.9635528554
 OPT| Effective energy change [hartree]                            -0.0001673208
 OPT| Predicted energy change [hartree]                            -0.0001791230
 OPT| Scaling factor                                                0.0000000000
 OPT| Step size                                                     0.0192561212
 OPT| Trust radius                                                  0.4724315332
 OPT| Decrease in energy                                                     YES
 OPT| Used time [s]                                                        0.021
 OPT|
 OPT| Maximum step size                                             0.0192561212
 OPT| Convergence limit for maximum step size                       0.0030000000
 OPT| Maximum step size is converged                                          NO
 OPT|
 OPT| RMS step size                                                 0.0071592975
 OPT| Convergence limit for RMS step size                           0.0015000000
 OPT| RMS step size is converged                                              NO
 OPT|
 OPT| Maximum gradient                                              0.0038417787
 OPT| Convergence limit for maximum gradient                        0.0004500000
 OPT| Maximum gradient is converged                                           NO
 OPT|
 OPT| RMS gradient                                                  0.0009061463
 OPT| Convergence limit for RMS gradient                            0.0003000000
 OPT| RMS gradient is converged                                               NO
 OPT| **************************************************************************
 OPT| Estimated peak process memory after this step [MiB]                    163

 --------------------------
 OPTIMIZATION STEP:      3
 --------------------------

 Extrapolation method: ASPC

 Number of electrons:                                                         42
 Number of occupied orbitals:                                                 21
 Number of molecular orbitals:                                                37

 Number of orbital functions:                                                 37
 Number of independent orbital functions:                                     37


 SCF WAVEFUNCTION OPTIMIZATION

  Step     Update method      Time    Convergence         Total energy    Change
  ------------------------------------------------------------------------------
     1 TBLite/Diag 0.40E+00    0.0     0.00624897       -23.9635802925 -2.40E+01
     2 TBLite/Diag 0.40E+00    0.0     0.00073179       -23.9635808889 -5.96E-07
     3 TBLite/Diag 0.40E+00    0.0     0.00027460       -23.9635808841  4.80E-09
     4 TBLite/Diag 0.40E+00    0.0     0.00025600       -23.9635809251 -4.10E-08
     5 TBLite/Diag 0.40E+00    0.0     0.00010117       -23.9635809324 -7.30E-09
     6 TBLite/Diag 0.40E+00    0.0     0.00003023       -23.9635809326 -2.32E-10
     7 TBLite/Diag 0.40E+00    0.0     0.00001224       -23.9635809328 -1.85E-10
     8 TBLite/Diag 0.40E+00    0.0     0.00000303       -23.9635809328 -1.28E-11
     9 TBLite/Diag 0.40E+00    0.0     0.00000057       -23.9635809328 -4.23E-13
    10 TBLite/Diag 0.40E+00    0.0     0.00000018       -23.9635809328 -4.62E-14
    11 TBLite/Diag 0.40E+00    0.0     0.00000006       -23.9635809328  0.00E+00
    12 TBLite/Diag 0.40E+00    0.0     0.00000003       -23.9635809328 -7.11E-15
    13 TBLite/Diag 0.40E+00    0.0     5.0954E-09       -23.9635809328 -3.55E-15
    14 TBLite/Diag 0.40E+00    0.0     1.9027E-09       -23.9635809328 -1.42E-14
    15 TBLite/Diag 0.40E+00    0.0     6.0837E-10       -23.9635809328  2.13E-14

  *** SCF run converged in    15 steps ***


  Core Hamiltonian energy:                                    -24.34970765653149
  Repulsive potential energy:                                   0.31918367328681
  Electrostatic energy:                                         0.07650787162524
  Self-consistent dispersion energy:                           -0.00957756995382
  Non-self consistent dispersion energy:                        0.00001274877344
  Correction for halogen bonding:                               0.00000000000000
  Electronic entropic energy:                                  -0.00000000000000
  Fermi energy:                                                -0.29168550044896

  Total energy:                                               -23.96358093279982
  Total energy (extrapolated to T->0):                        -23.96358093279982

 ENERGY| Total FORCE_EVAL ( QS ) energy [hartree]            -23.963580932799818

 OPT| **************************************************************************
 OPT| Step number                                                              3
 OPT| Optimization method                                                   BFGS
 OPT| Total energy [hartree]                                      -23.9635809328
 OPT| Effective energy change [hartree]                            -0.0000280774
 OPT| Predicted energy change [hartree]                            -0.0000264284
 OPT| Scaling factor                                                0.0000000000
 OPT| Step size                                                     0.0088515842
 OPT| Trust radius                                                  0.4724315332
 OPT| Decrease in energy                                                     YES
 OPT| Used time [s]                                                        0.020
 OPT|
 OPT| Maximum step size                                             0.0088515842
 OPT| Convergence limit for maximum step size                       0.0030000000
 OPT| Maximum step size is converged                                          NO
 OPT|
 OPT| RMS step size                                                 0.0029228538
 OPT| Convergence limit for RMS step size                           0.0015000000
 OPT| RMS step size is converged                                              NO
 OPT|
 OPT| Maximum gradient                                              0.0020354937
 OPT| Convergence limit for maximum gradient                        0.0004500000
 OPT| Maximum gradient is converged                                           NO
 OPT|
 OPT| RMS gradient                                                  0.0005911016
 OPT| Convergence limit for RMS gradient                            0.0003000000
 OPT| RMS gradient is converged                                               NO
 OPT| **************************************************************************
 OPT| Estimated peak process memory after this step [MiB]                    163

 --------------------------
 OPTIMIZATION STEP:      4
 --------------------------

 Extrapolation method: ASPC

 Number of electrons:                                                         42
 Number of occupied orbitals:                                                 21
 Number of molecular orbitals:                                                37

 Number of orbital functions:                                                 37
 Number of independent orbital functions:                                     37


 SCF WAVEFUNCTION OPTIMIZATION

  Step     Update method      Time    Convergence         Total energy    Change
  ------------------------------------------------------------------------------
     1 TBLite/Diag 0.40E+00    0.0     0.00768210       -23.9635951174 -2.40E+01
     2 TBLite/Diag 0.40E+00    0.0     0.00070851       -23.9635956782 -5.61E-07
     3 TBLite/Diag 0.40E+00    0.0     0.00025911       -23.9635956895 -1.13E-08
     4 TBLite/Diag 0.40E+00    0.0     0.00017204       -23.9635957266 -3.71E-08
     5 TBLite/Diag 0.40E+00    0.0     0.00009773       -23.9635957357 -9.10E-09
     6 TBLite/Diag 0.40E+00    0.0     0.00003937       -23.9635957361 -4.02E-10
     7 TBLite/Diag 0.40E+00    0.0     0.00001774       -23.9635957364 -2.76E-10
     8 TBLite/Diag 0.40E+00    0.0     0.00000243       -23.9635957364 -5.84E-12
     9 TBLite/Diag 0.40E+00    0.0     0.00000135       -23.9635957364 -1.49E-12
    10 TBLite/Diag 0.40E+00    0.0     0.00000031       -23.9635957364 -2.84E-13
    11 TBLite/Diag 0.40E+00    0.0     0.00000010       -23.9635957364 -1.42E-14
    12 TBLite/Diag 0.40E+00    0.0     0.00000002       -23.9635957364 -7.11E-15
    13 TBLite/Diag 0.40E+00    0.0     7.7669E-09       -23.9635957364  7.11E-15
    14 TBLite/Diag 0.40E+00    0.0     1.3275E-09       -23.9635957364  1.42E-14
    15 TBLite/Diag 0.40E+00    0.0     4.6049E-10       -23.9635957364 -7.11E-15

  *** SCF run converged in    15 steps ***


  Core Hamiltonian energy:                                    -24.34908126894612
  Repulsive potential energy:                                   0.31854782581183
  Electrostatic energy:                                         0.07650167975371
  Self-consistent dispersion energy:                           -0.00957674566284
  Non-self consistent dispersion energy:                        0.00001277264721
  Correction for halogen bonding:                               0.00000000000000
  Electronic entropic energy:                                  -0.00000000000000
  Fermi energy:                                                -0.29177680727171

  Total energy:                                               -23.96359573639620
  Total energy (extrapolated to T->0):                        -23.96359573639620

 ENERGY| Total FORCE_EVAL ( QS ) energy [hartree]            -23.963595736396204

 OPT| **************************************************************************
 OPT| Step number                                                              4
 OPT| Optimization method                                                   BFGS
 OPT| Total energy [hartree]                                      -23.9635957364
 OPT| Effective energy change [hartree]                            -0.0000148036
 OPT| Predicted energy change [hartree]                            -0.0000124944
 OPT| Scaling factor                                                0.0000000000
 OPT| Step size                                                     0.0066182235
 OPT| Trust radius                                                  0.4724315332
 OPT| Decrease in energy                                                     YES
 OPT| Used time [s]                                                        0.020
 OPT|
 OPT| Maximum step size                                             0.0066182235
 OPT| Convergence limit for maximum step size                       0.0030000000
 OPT| Maximum step size is converged                                          NO
 OPT|
 OPT| RMS step size                                                 0.0020965903
 OPT| Convergence limit for RMS step size                           0.0015000000
 OPT| RMS step size is converged                                              NO
 OPT|
 OPT| Maximum gradient                                              0.0009136616
 OPT| Convergence limit for maximum gradient                        0.0004500000
 OPT| Maximum gradient is converged                                           NO
 OPT|
 OPT| RMS gradient                                                  0.0003109855
 OPT| Convergence limit for RMS gradient                            0.0003000000
 OPT| RMS gradient is converged                                               NO
 OPT| **************************************************************************
 OPT| Estimated peak process memory after this step [MiB]                    163

 --------------------------
 OPTIMIZATION STEP:      5
 --------------------------

 Extrapolation method: ASPC

 Number of electrons:                                                         42
 Number of occupied orbitals:                                                 21
 Number of molecular orbitals:                                                37

 Number of orbital functions:                                                 37
 Number of independent orbital functions:                                     37


 SCF WAVEFUNCTION OPTIMIZATION

  Step     Update method      Time    Convergence         Total energy    Change
  ------------------------------------------------------------------------------
     1 TBLite/Diag 0.40E+00    0.0     0.00720552       -23.9636010285 -2.40E+01
     2 TBLite/Diag 0.40E+00    0.0     0.00064836       -23.9636013671 -3.39E-07
     3 TBLite/Diag 0.40E+00    0.0     0.00019872       -23.9636013871 -2.00E-08
     4 TBLite/Diag 0.40E+00    0.0     0.00010911       -23.9636014017 -1.46E-08
     5 TBLite/Diag 0.40E+00    0.0     0.00004606       -23.9636014052 -3.55E-09
     6 TBLite/Diag 0.40E+00    0.0     0.00002835       -23.9636014052  7.25E-12
     7 TBLite/Diag 0.40E+00    0.0     0.00001614       -23.9636014055 -2.47E-10
     8 TBLite/Diag 0.40E+00    0.0     0.00000141       -23.9636014055 -1.38E-12
     9 TBLite/Diag 0.40E+00    0.0     0.00000091       -23.9636014055 -8.14E-13
    10 TBLite/Diag 0.40E+00    0.0     0.00000018       -23.9636014055 -5.68E-14
    11 TBLite/Diag 0.40E+00    0.0     0.00000005       -23.9636014055 -7.11E-15
    12 TBLite/Diag 0.40E+00    0.0     0.00000002       -23.9636014055  0.00E+00
    13 TBLite/Diag 0.40E+00    0.0     5.2157E-09       -23.9636014055 -1.07E-14
    14 TBLite/Diag 0.40E+00    0.0     1.4041E-09       -23.9636014055 -3.55E-15
    15 TBLite/Diag 0.40E+00    0.0     6.5894E-10       -23.9636014055  7.11E-15

  *** SCF run converged in    15 steps ***


  Core Hamiltonian energy:                                    -24.34886983082675
  Repulsive potential energy:                                   0.31836074191689
  Electrostatic energy:                                         0.07647137681800
  Self-consistent dispersion energy:                           -0.00957648106627
  Non-self consistent dispersion energy:                        0.00001278770349
  Correction for halogen bonding:                               0.00000000000000
  Electronic entropic energy:                                  -0.00000000000000
  Fermi energy:                                                -0.29181698529221

  Total energy:                                               -23.96360140545464
  Total energy (extrapolated to T->0):                        -23.96360140545464

 ENERGY| Total FORCE_EVAL ( QS ) energy [hartree]            -23.963601405454636

 OPT| **************************************************************************
 OPT| Step number                                                              5
 OPT| Optimization method                                                   BFGS
 OPT| Total energy [hartree]                                      -23.9636014055
 OPT| Effective energy change [hartree]                            -0.0000056691
 OPT| Predicted energy change [hartree]                            -0.0000049131
 OPT| Scaling factor                                                0.0000000000
 OPT| Step size                                                     0.0046764652
 OPT| Trust radius                                                  0.4724315332
 OPT| Decrease in energy                                                     YES
 OPT| Used time [s]                                                        0.021
 OPT|
 OPT| Maximum step size                                             0.0046764652
 OPT| Convergence limit for maximum step size                       0.0030000000
 OPT| Maximum step size is converged                                          NO
 OPT|
 OPT| RMS step size                                                 0.0016296011
 OPT| Convergence limit for RMS step size                           0.0015000000
 OPT| RMS step size is converged                                              NO
 OPT|
 OPT| Maximum gradient                                              0.0006105080
 OPT| Convergence limit for maximum gradient                        0.0004500000
 OPT| Maximum gradient is converged                                           NO
 OPT|
 OPT| RMS gradient                                                  0.0001769146
 OPT| Convergence limit for RMS gradient                            0.0003000000
 OPT| RMS gradient is converged                                              YES
 OPT| **************************************************************************
 OPT| Estimated peak process memory after this step [MiB]                    163

 --------------------------
 OPTIMIZATION STEP:      6
 --------------------------

 Extrapolation method: ASPC

 Number of electrons:                                                         42
 Number of occupied orbitals:                                                 21
 Number of molecular orbitals:                                                37

 Number of orbital functions:                                                 37
 Number of independent orbital functions:                                     37


 SCF WAVEFUNCTION OPTIMIZATION

  Step     Update method      Time    Convergence         Total energy    Change
  ------------------------------------------------------------------------------
     1 TBLite/Diag 0.40E+00    0.0     0.00584071       -23.9636038483 -2.40E+01
     2 TBLite/Diag 0.40E+00    0.0     0.00036584       -23.9636039832 -1.35E-07
     3 TBLite/Diag 0.40E+00    0.0     0.00015064       -23.9636039899 -6.72E-09
     4 TBLite/Diag 0.40E+00    0.0     0.00012693       -23.9636039972 -7.31E-09
     5 TBLite/Diag 0.40E+00    0.0     0.00005820       -23.9636039998 -2.57E-09
     6 TBLite/Diag 0.40E+00    0.0     0.00001800       -23.9636039998 -3.16E-11
     7 TBLite/Diag 0.40E+00    0.0     0.00000790       -23.9636039999 -1.01E-10
     8 TBLite/Diag 0.40E+00    0.0     0.00000061       -23.9636039999 -4.23E-13
     9 TBLite/Diag 0.40E+00    0.0     0.00000032       -23.9636039999 -1.07E-13
    10 TBLite/Diag 0.40E+00    0.0     0.00000008       -23.9636039999 -7.11E-15
    11 TBLite/Diag 0.40E+00    0.0     0.00000003       -23.9636039999 -1.78E-14
    12 TBLite/Diag 0.40E+00    0.0     0.00000001       -23.9636039999  1.42E-14
    13 TBLite/Diag 0.40E+00    0.0     3.2742E-09       -23.9636039999 -7.11E-15
    14 TBLite/Diag 0.40E+00    0.0     7.7941E-10       -23.9636039999  3.55E-15

  *** SCF run converged in    14 steps ***


  Core Hamiltonian energy:                                    -24.34894640938263
  Repulsive potential energy:                                   0.31846727373165
  Electrostatic energy:                                         0.07643888399097
  Self-consistent dispersion energy:                           -0.00957653689789
  Non-self consistent dispersion energy:                        0.00001278864835
  Correction for halogen bonding:                               0.00000000000000
  Electronic entropic energy:                                  -0.00000000000000
  Fermi energy:                                                -0.29179814701303

  Total energy:                                               -23.96360399990955
  Total energy (extrapolated to T->0):                        -23.96360399990955

 ENERGY| Total FORCE_EVAL ( QS ) energy [hartree]            -23.963603999909548

 OPT| **************************************************************************
 OPT| Step number                                                              6
 OPT| Optimization method                                                   BFGS
 OPT| Total energy [hartree]                                      -23.9636039999
 OPT| Effective energy change [hartree]                            -0.0000025945
 OPT| Predicted energy change [hartree]                            -0.0000022984
 OPT| Scaling factor                                                0.0000000000
 OPT| Step size                                                     0.0041524406
 OPT| Trust radius                                                  0.4724315332
 OPT| Decrease in energy                                                     YES
 OPT| Used time [s]                                                        0.019
 OPT|
 OPT| Maximum step size                                             0.0041524406
 OPT| Convergence limit for maximum step size                       0.0030000000
 OPT| Maximum step size is converged                                          NO
 OPT|
 OPT| RMS step size                                                 0.0014540126
 OPT| Convergence limit for RMS step size                           0.0015000000
 OPT| RMS step size is converged                                             YES
 OPT|
 OPT| Maximum gradient                                              0.0004140536
 OPT| Convergence limit for maximum gradient                        0.0004500000
 OPT| Maximum gradient is converged                                          YES
 OPT|
 OPT| RMS gradient                                                  0.0001549222
 OPT| Convergence limit for RMS gradient                            0.0003000000
 OPT| RMS gradient is converged                                              YES
 OPT| **************************************************************************
 OPT| Estimated peak process memory after this step [MiB]                    163

 --------------------------
 OPTIMIZATION STEP:      7
 --------------------------

 Extrapolation method: ASPC

 Number of electrons:                                                         42
 Number of occupied orbitals:                                                 21
 Number of molecular orbitals:                                                37

 Number of orbital functions:                                                 37
 Number of independent orbital functions:                                     37


 SCF WAVEFUNCTION OPTIMIZATION

  Step     Update method      Time    Convergence         Total energy    Change
  ------------------------------------------------------------------------------
     1 TBLite/Diag 0.40E+00    0.0     0.00874531       -23.9636066738 -2.40E+01
     2 TBLite/Diag 0.40E+00    0.0     0.00052392       -23.9636068069 -1.33E-07
     3 TBLite/Diag 0.40E+00    0.0     0.00024631       -23.9636068068  8.20E-12
     4 TBLite/Diag 0.40E+00    0.0     0.00021322       -23.9636068268 -2.00E-08
     5 TBLite/Diag 0.40E+00    0.0     0.00008121       -23.9636068315 -4.62E-09
     6 TBLite/Diag 0.40E+00    0.0     0.00001581       -23.9636068316 -9.84E-11
     7 TBLite/Diag 0.40E+00    0.0     0.00000797       -23.9636068317 -8.92E-11
     8 TBLite/Diag 0.40E+00    0.0     0.00000097       -23.9636068317 -1.47E-12
     9 TBLite/Diag 0.40E+00    0.0     0.00000021       -23.9636068317 -4.97E-14
    10 TBLite/Diag 0.40E+00    0.0     0.00000006       -23.9636068317 -1.78E-14
    11 TBLite/Diag 0.40E+00    0.0     0.00000002       -23.9636068317 -1.42E-14
    12 TBLite/Diag 0.40E+00    0.0     3.8560E-09       -23.9636068317  7.11E-15
    13 TBLite/Diag 0.40E+00    0.0     1.9218E-09       -23.9636068317  1.78E-14
    14 TBLite/Diag 0.40E+00    0.0     8.6763E-10       -23.9636068317  3.55E-15

  *** SCF run converged in    14 steps ***


  Core Hamiltonian energy:                                    -24.34908080569657
  Repulsive potential energy:                                   0.31862898690275
  Electrostatic energy:                                         0.07640869420034
  Self-consistent dispersion energy:                           -0.00957648963000
  Non-self consistent dispersion energy:                        0.00001278256317
  Correction for halogen bonding:                               0.00000000000000
  Electronic entropic energy:                                  -0.00000000000000
  Fermi energy:                                                -0.29174452489637

  Total energy:                                               -23.96360683166030
  Total energy (extrapolated to T->0):                        -23.96360683166030

 ENERGY| Total FORCE_EVAL ( QS ) energy [hartree]            -23.963606831660300

 OPT| **************************************************************************
 OPT| Step number                                                              7
 OPT| Optimization method                                                   BFGS
 OPT| Total energy [hartree]                                      -23.9636068317
 OPT| Effective energy change [hartree]                            -0.0000028318
 OPT| Predicted energy change [hartree]                            -0.0000021785
 OPT| Scaling factor                                                0.0000000000
 OPT| Step size                                                     0.0057565948
 OPT| Trust radius                                                  0.4724315332
 OPT| Decrease in energy                                                     YES
 OPT| Used time [s]                                                        0.019
 OPT|
 OPT| Maximum step size                                             0.0057565948
 OPT| Convergence limit for maximum step size                       0.0030000000
 OPT| Maximum step size is converged                                          NO
 OPT|
 OPT| RMS step size                                                 0.0018762259
 OPT| Convergence limit for RMS step size                           0.0015000000
 OPT| RMS step size is converged                                              NO
 OPT|
 OPT| Maximum gradient                                              0.0006410117
 OPT| Convergence limit for maximum gradient                        0.0004500000
 OPT| Maximum gradient is converged                                           NO
 OPT|
 OPT| RMS gradient                                                  0.0001941176
 OPT| Convergence limit for RMS gradient                            0.0003000000
 OPT| RMS gradient is converged                                              YES
 OPT| **************************************************************************
 OPT| Estimated peak process memory after this step [MiB]                    163

 --------------------------
 OPTIMIZATION STEP:      8
 --------------------------

 Extrapolation method: ASPC

 Number of electrons:                                                         42
 Number of occupied orbitals:                                                 21
 Number of molecular orbitals:                                                37

 Number of orbital functions:                                                 37
 Number of independent orbital functions:                                     37


 SCF WAVEFUNCTION OPTIMIZATION

  Step     Update method      Time    Convergence         Total energy    Change
  ------------------------------------------------------------------------------
     1 TBLite/Diag 0.40E+00    0.0     0.00834530       -23.9636092141 -2.40E+01
     2 TBLite/Diag 0.40E+00    0.0     0.00034501       -23.9636092760 -6.19E-08
     3 TBLite/Diag 0.40E+00    0.0     0.00016244       -23.9636092751  8.78E-10
     4 TBLite/Diag 0.40E+00    0.0     0.00013994       -23.9636092883 -1.31E-08
     5 TBLite/Diag 0.40E+00    0.0     0.00005168       -23.9636092897 -1.46E-09
     6 TBLite/Diag 0.40E+00    0.0     0.00001577       -23.9636092898 -8.26E-11
     7 TBLite/Diag 0.40E+00    0.0     0.00000611       -23.9636092899 -6.42E-11
     8 TBLite/Diag 0.40E+00    0.0     0.00000045       -23.9636092899 -5.44E-13
     9 TBLite/Diag 0.40E+00    0.0     0.00000022       -23.9636092899 -9.95E-14
    10 TBLite/Diag 0.40E+00    0.0     0.00000007       -23.9636092899 -7.11E-15
    11 TBLite/Diag 0.40E+00    0.0     0.00000005       -23.9636092899  3.55E-15
    12 TBLite/Diag 0.40E+00    0.0     7.4539E-09       -23.9636092899  3.55E-15
    13 TBLite/Diag 0.40E+00    0.0     2.6458E-09       -23.9636092899 -1.42E-14
    14 TBLite/Diag 0.40E+00    0.0     8.6756E-10       -23.9636092899  0.00E+00

  *** SCF run converged in    14 steps ***


  Core Hamiltonian energy:                                    -24.34910460521293
  Repulsive potential energy:                                   0.31864688301742
  Electrostatic energy:                                         0.07641185368239
  Self-consistent dispersion energy:                           -0.00957619744037
  Non-self consistent dispersion energy:                        0.00001277608532
  Correction for halogen bonding:                               0.00000000000000
  Electronic entropic energy:                                  -0.00000000000000
  Fermi energy:                                                -0.29168336282216

  Total energy:                                               -23.96360928986818
  Total energy (extrapolated to T->0):                        -23.96360928986818

 ENERGY| Total FORCE_EVAL ( QS ) energy [hartree]            -23.963609289868177

 OPT| **************************************************************************
 OPT| Step number                                                              8
 OPT| Optimization method                                                   BFGS
 OPT| Total energy [hartree]                                      -23.9636092899
 OPT| Effective energy change [hartree]                            -0.0000024582
 OPT| Predicted energy change [hartree]                            -0.0000015862
 OPT| Scaling factor                                                0.0000000000
 OPT| Step size                                                     0.0065533445
 OPT| Trust radius                                                  0.4724315332
 OPT| Decrease in energy                                                     YES
 OPT| Used time [s]                                                        0.020
 OPT|
 OPT| Maximum step size                                             0.0065533445
 OPT| Convergence limit for maximum step size                       0.0030000000
 OPT| Maximum step size is converged                                          NO
 OPT|
 OPT| RMS step size                                                 0.0019133890
 OPT| Convergence limit for RMS step size                           0.0015000000
 OPT| RMS step size is converged                                              NO
 OPT|
 OPT| Maximum gradient                                              0.0005595033
 OPT| Convergence limit for maximum gradient                        0.0004500000
 OPT| Maximum gradient is converged                                           NO
 OPT|
 OPT| RMS gradient                                                  0.0002000258
 OPT| Convergence limit for RMS gradient                            0.0003000000
 OPT| RMS gradient is converged                                              YES
 OPT| **************************************************************************
 OPT| Estimated peak process memory after this step [MiB]                    163

 --------------------------
 OPTIMIZATION STEP:      9
 --------------------------

 Extrapolation method: ASPC

 Number of electrons:                                                         42
 Number of occupied orbitals:                                                 21
 Number of molecular orbitals:                                                37

 Number of orbital functions:                                                 37
 Number of independent orbital functions:                                     37


 SCF WAVEFUNCTION OPTIMIZATION

  Step     Update method      Time    Convergence         Total energy    Change
  ------------------------------------------------------------------------------
     1 TBLite/Diag 0.40E+00    0.0     0.01540544       -23.9636122578 -2.40E+01
     2 TBLite/Diag 0.40E+00    0.0     0.00041443       -23.9636124368 -1.79E-07
     3 TBLite/Diag 0.40E+00    0.0     0.00022450       -23.9636124500 -1.32E-08
     4 TBLite/Diag 0.40E+00    0.0     0.00017730       -23.9636124747 -2.47E-08
     5 TBLite/Diag 0.40E+00    0.0     0.00004744       -23.9636124761 -1.40E-09
     6 TBLite/Diag 0.40E+00    0.0     0.00002840       -23.9636124764 -2.39E-10
     7 TBLite/Diag 0.40E+00    0.0     0.00001567       -23.9636124766 -1.87E-10
     8 TBLite/Diag 0.40E+00    0.0     0.00000160       -23.9636124766 -2.98E-12
     9 TBLite/Diag 0.40E+00    0.0     0.00000054       -23.9636124766 -4.16E-13
    10 TBLite/Diag 0.40E+00    0.0     0.00000015       -23.9636124766 -3.55E-15
    11 TBLite/Diag 0.40E+00    0.0     0.00000008       -23.9636124766 -1.78E-14
    12 TBLite/Diag 0.40E+00    0.0     0.00000002       -23.9636124766  7.11E-15
    13 TBLite/Diag 0.40E+00    0.0     4.6587E-09       -23.9636124766 -1.42E-14
    14 TBLite/Diag 0.40E+00    0.0     1.2924E-09       -23.9636124766  7.11E-15
    15 TBLite/Diag 0.40E+00    0.0     4.7496E-10       -23.9636124766 -7.11E-15

  *** SCF run converged in    15 steps ***


  Core Hamiltonian energy:                                    -24.34911789357994
  Repulsive potential energy:                                   0.31862582591807
  Electrostatic energy:                                         0.07644278471165
  Self-consistent dispersion energy:                           -0.00957596306983
  Non-self consistent dispersion energy:                        0.00001276946589
  Correction for halogen bonding:                               0.00000000000000
  Electronic entropic energy:                                  -0.00000000000000
  Fermi energy:                                                -0.29157300275828

  Total energy:                                               -23.96361247655415
  Total energy (extrapolated to T->0):                        -23.96361247655415

 ENERGY| Total FORCE_EVAL ( QS ) energy [hartree]            -23.963612476554154

 OPT| **************************************************************************
 OPT| Step number                                                              9
 OPT| Optimization method                                                   BFGS
 OPT| Total energy [hartree]                                      -23.9636124766
 OPT| Effective energy change [hartree]                            -0.0000031867
 OPT| Predicted energy change [hartree]                            -0.0000023134
 OPT| Scaling factor                                                0.0000000000
 OPT| Step size                                                     0.0127193728
 OPT| Trust radius                                                  0.4724315332
 OPT| Decrease in energy                                                     YES
 OPT| Used time [s]                                                        0.021
 OPT|
 OPT| Maximum step size                                             0.0127193728
 OPT| Convergence limit for maximum step size                       0.0030000000
 OPT| Maximum step size is converged                                          NO
 OPT|
 OPT| RMS step size                                                 0.0033670227
 OPT| Convergence limit for RMS step size                           0.0015000000
 OPT| RMS step size is converged                                              NO
 OPT|
 OPT| Maximum gradient                                              0.0004579943
 OPT| Convergence limit for maximum gradient                        0.0004500000
 OPT| Maximum gradient is converged                                           NO
 OPT|
 OPT| RMS gradient                                                  0.0001597795
 OPT| Convergence limit for RMS gradient                            0.0003000000
 OPT| RMS gradient is converged                                              YES
 OPT| **************************************************************************
 OPT| Estimated peak process memory after this step [MiB]                    163

 --------------------------
 OPTIMIZATION STEP:     10
 --------------------------

 Extrapolation method: ASPC

 Number of electrons:                                                         42
 Number of occupied orbitals:                                                 21
 Number of molecular orbitals:                                                37

 Number of orbital functions:                                                 37
 Number of independent orbital functions:                                     37


 SCF WAVEFUNCTION OPTIMIZATION

  Step     Update method      Time    Convergence         Total energy    Change
  ------------------------------------------------------------------------------
     1 TBLite/Diag 0.40E+00    0.0     0.01341270       -23.9636144472 -2.40E+01
     2 TBLite/Diag 0.40E+00    0.0     0.00029995       -23.9636145909 -1.44E-07
     3 TBLite/Diag 0.40E+00    0.0     0.00031151       -23.9636145572  3.37E-08
     4 TBLite/Diag 0.40E+00    0.0     0.00029264       -23.9636146256 -6.85E-08
     5 TBLite/Diag 0.40E+00    0.0     0.00009150       -23.9636146310 -5.35E-09
     6 TBLite/Diag 0.40E+00    0.0     0.00002164       -23.9636146313 -2.65E-10
     7 TBLite/Diag 0.40E+00    0.0     0.00000749       -23.9636146313 -7.49E-11
     8 TBLite/Diag 0.40E+00    0.0     0.00000090       -23.9636146313 -1.69E-12
     9 TBLite/Diag 0.40E+00    0.0     0.00000041       -23.9636146313 -3.77E-13
    10 TBLite/Diag 0.40E+00    0.0     0.00000010       -23.9636146313 -2.13E-14
    11 TBLite/Diag 0.40E+00    0.0     0.00000005       -23.9636146313  7.11E-15
    12 TBLite/Diag 0.40E+00    0.0     9.0394E-09       -23.9636146313 -1.42E-14
    13 TBLite/Diag 0.40E+00    0.0     3.5025E-09       -23.9636146313  1.78E-14
    14 TBLite/Diag 0.40E+00    0.0     9.3155E-10       -23.9636146313 -7.11E-15

  *** SCF run converged in    14 steps ***


  Core Hamiltonian energy:                                    -24.34913938642973
  Repulsive potential energy:                                   0.31860730092370
  Electrostatic energy:                                         0.07648057222805
  Self-consistent dispersion energy:                           -0.00957588695221
  Non-self consistent dispersion energy:                        0.00001276888775
  Correction for halogen bonding:                               0.00000000000000
  Electronic entropic energy:                                  -0.00000000000000
  Fermi energy:                                                -0.29148604966002

  Total energy:                                               -23.96361463134244
  Total energy (extrapolated to T->0):                        -23.96361463134244

 ENERGY| Total FORCE_EVAL ( QS ) energy [hartree]            -23.963614631342445

 OPT| **************************************************************************
 OPT| Step number                                                             10
 OPT| Optimization method                                                   BFGS
 OPT| Total energy [hartree]                                      -23.9636146313
 OPT| Effective energy change [hartree]                            -0.0000021548
 OPT| Predicted energy change [hartree]                            -0.0000014874
 OPT| Scaling factor                                                0.0000000000
 OPT| Step size                                                     0.0117222804
 OPT| Trust radius                                                  0.4724315332
 OPT| Decrease in energy                                                     YES
 OPT| Used time [s]                                                        0.020
 OPT|
 OPT| Maximum step size                                             0.0117222804
 OPT| Convergence limit for maximum step size                       0.0030000000
 OPT| Maximum step size is converged                                          NO
 OPT|
 OPT| RMS step size                                                 0.0028560549
 OPT| Convergence limit for RMS step size                           0.0015000000
 OPT| RMS step size is converged                                              NO
 OPT|
 OPT| Maximum gradient                                              0.0002827577
 OPT| Convergence limit for maximum gradient                        0.0004500000
 OPT| Maximum gradient is converged                                          YES
 OPT|
 OPT| RMS gradient                                                  0.0001104882
 OPT| Convergence limit for RMS gradient                            0.0003000000
 OPT| RMS gradient is converged                                              YES
 OPT| **************************************************************************
 OPT| Estimated peak process memory after this step [MiB]                    163

 --------------------------
 OPTIMIZATION STEP:     11
 --------------------------

 Extrapolation method: ASPC

 Number of electrons:                                                         42
 Number of occupied orbitals:                                                 21
 Number of molecular orbitals:                                                37

 Number of orbital functions:                                                 37
 Number of independent orbital functions:                                     37


 SCF WAVEFUNCTION OPTIMIZATION

  Step     Update method      Time    Convergence         Total energy    Change
  ------------------------------------------------------------------------------
     1 TBLite/Diag 0.40E+00    0.0     0.01414228       -23.9636163145 -2.40E+01
     2 TBLite/Diag 0.40E+00    0.0     0.00035323       -23.9636164752 -1.61E-07
     3 TBLite/Diag 0.40E+00    0.0     0.00050097       -23.9636163898  8.55E-08
     4 TBLite/Diag 0.40E+00    0.0     0.00041116       -23.9636165290 -1.39E-07
     5 TBLite/Diag 0.40E+00    0.0     0.00007231       -23.9636165326 -3.59E-09
     6 TBLite/Diag 0.40E+00    0.0     0.00002135       -23.9636165328 -1.42E-10
     7 TBLite/Diag 0.40E+00    0.0     0.00000815       -23.9636165328 -8.77E-11
     8 TBLite/Diag 0.40E+00    0.0     0.00000080       -23.9636165328 -1.39E-12
     9 TBLite/Diag 0.40E+00    0.0     0.00000039       -23.9636165328 -3.77E-13
    10 TBLite/Diag 0.40E+00    0.0     0.00000007       -23.9636165328  2.13E-14
    11 TBLite/Diag 0.40E+00    0.0     0.00000006       -23.9636165328 -1.07E-14
    12 TBLite/Diag 0.40E+00    0.0     8.7268E-09       -23.9636165328  0.00E+00
    13 TBLite/Diag 0.40E+00    0.0     4.1008E-09       -23.9636165328 -1.78E-14
    14 TBLite/Diag 0.40E+00    0.0     6.8006E-10       -23.9636165328  0.00E+00

  *** SCF run converged in    14 steps ***


  Core Hamiltonian energy:                                    -24.34919752981877
  Repulsive potential energy:                                   0.31863209824029
  Electrostatic energy:                                         0.07651229827334
  Self-consistent dispersion energy:                           -0.00957616938790
  Non-self consistent dispersion energy:                        0.00001276985076
  Correction for halogen bonding:                               0.00000000000000
  Electronic entropic energy:                                  -0.00000000000000
  Fermi energy:                                                -0.29141704129211

  Total energy:                                               -23.96361653284229
  Total energy (extrapolated to T->0):                        -23.96361653284229

 ENERGY| Total FORCE_EVAL ( QS ) energy [hartree]            -23.963616532842288

 OPT| **************************************************************************
 OPT| Step number                                                             11
 OPT| Optimization method                                                   BFGS
 OPT| Total energy [hartree]                                      -23.9636165328
 OPT| Effective energy change [hartree]                            -0.0000019015
 OPT| Predicted energy change [hartree]                            -0.0000013768
 OPT| Scaling factor                                                0.0000000000
 OPT| Step size                                                     0.0130982988
 OPT| Trust radius                                                  0.4724315332
 OPT| Decrease in energy                                                     YES
 OPT| Used time [s]                                                        0.019
 OPT|
 OPT| Maximum step size                                             0.0130982988
 OPT| Convergence limit for maximum step size                       0.0030000000
 OPT| Maximum step size is converged                                          NO
 OPT|
 OPT| RMS step size                                                 0.0030228801
 OPT| Convergence limit for RMS step size                           0.0015000000
 OPT| RMS step size is converged                                              NO
 OPT|
 OPT| Maximum gradient                                              0.0002394402
 OPT| Convergence limit for maximum gradient                        0.0004500000
 OPT| Maximum gradient is converged                                          YES
 OPT|
 OPT| RMS gradient                                                  0.0001002957
 OPT| Convergence limit for RMS gradient                            0.0003000000
 OPT| RMS gradient is converged                                              YES
 OPT| **************************************************************************
 OPT| Estimated peak process memory after this step [MiB]                    163

 --------------------------
 OPTIMIZATION STEP:     12
 --------------------------

 Extrapolation method: ASPC

 Number of electrons:                                                         42
 Number of occupied orbitals:                                                 21
 Number of molecular orbitals:                                                37

 Number of orbital functions:                                                 37
 Number of independent orbital functions:                                     37


 SCF WAVEFUNCTION OPTIMIZATION

  Step     Update method      Time    Convergence         Total energy    Change
  ------------------------------------------------------------------------------
     1 TBLite/Diag 0.40E+00    0.0     0.01234539       -23.9636178426 -2.40E+01
     2 TBLite/Diag 0.40E+00    0.0     0.00033886       -23.9636179497 -1.07E-07
     3 TBLite/Diag 0.40E+00    0.0     0.00047219       -23.9636178794  7.03E-08
     4 TBLite/Diag 0.40E+00    0.0     0.00037104       -23.9636179944 -1.15E-07
     5 TBLite/Diag 0.40E+00    0.0     0.00005907       -23.9636179966 -2.25E-09
     6 TBLite/Diag 0.40E+00    0.0     0.00001603       -23.9636179967 -9.70E-11
     7 TBLite/Diag 0.40E+00    0.0     0.00000585       -23.9636179968 -5.07E-11
     8 TBLite/Diag 0.40E+00    0.0     0.00000107       -23.9636179968 -1.37E-12
     9 TBLite/Diag 0.40E+00    0.0     0.00000037       -23.9636179968 -2.17E-13
    10 TBLite/Diag 0.40E+00    0.0     0.00000005       -23.9636179968  0.00E+00
    11 TBLite/Diag 0.40E+00    0.0     0.00000003       -23.9636179968 -1.42E-14
    12 TBLite/Diag 0.40E+00    0.0     8.8639E-09       -23.9636179968  1.07E-14
    13 TBLite/Diag 0.40E+00    0.0     4.4679E-09       -23.9636179968  2.49E-14
    14 TBLite/Diag 0.40E+00    0.0     4.8794E-10       -23.9636179968 -2.84E-14

  *** SCF run converged in    14 steps ***


  Core Hamiltonian energy:                                    -24.34927163861803
  Repulsive potential energy:                                   0.31868725367453
  Electrostatic energy:                                         0.07652994500997
  Self-consistent dispersion energy:                           -0.00957632880906
  Non-self consistent dispersion energy:                        0.00001277198361
  Correction for halogen bonding:                               0.00000000000000
  Electronic entropic energy:                                  -0.00000000000000
  Fermi energy:                                                -0.29136961183244

  Total energy:                                               -23.96361799675898
  Total energy (extrapolated to T->0):                        -23.96361799675898

 ENERGY| Total FORCE_EVAL ( QS ) energy [hartree]            -23.963617996758984

 OPT| **************************************************************************
 OPT| Step number                                                             12
 OPT| Optimization method                                                   BFGS
 OPT| Total energy [hartree]                                      -23.9636179968
 OPT| Effective energy change [hartree]                            -0.0000014639
 OPT| Predicted energy change [hartree]                            -0.0000010398
 OPT| Scaling factor                                                0.0000000000
 OPT| Step size                                                     0.0120144433
 OPT| Trust radius                                                  0.4724315332
 OPT| Decrease in energy                                                     YES
 OPT| Used time [s]                                                        0.019
 OPT|
 OPT| Maximum step size                                             0.0120144433
 OPT| Convergence limit for maximum step size                       0.0030000000
 OPT| Maximum step size is converged                                          NO
 OPT|
 OPT| RMS step size                                                 0.0026841763
 OPT| Convergence limit for RMS step size                           0.0015000000
 OPT| RMS step size is converged                                              NO
 OPT|
 OPT| Maximum gradient                                              0.0003436622
 OPT| Convergence limit for maximum gradient                        0.0004500000
 OPT| Maximum gradient is converged                                          YES
 OPT|
 OPT| RMS gradient                                                  0.0001198765
 OPT| Convergence limit for RMS gradient                            0.0003000000
 OPT| RMS gradient is converged                                              YES
 OPT| **************************************************************************
 OPT| Estimated peak process memory after this step [MiB]                    163

 --------------------------
 OPTIMIZATION STEP:     13
 --------------------------

 Extrapolation method: ASPC

 Number of electrons:                                                         42
 Number of occupied orbitals:                                                 21
 Number of molecular orbitals:                                                37

 Number of orbital functions:                                                 37
 Number of independent orbital functions:                                     37


 SCF WAVEFUNCTION OPTIMIZATION

  Step     Update method      Time    Convergence         Total energy    Change
  ------------------------------------------------------------------------------
     1 TBLite/Diag 0.40E+00    0.0     0.01474491       -23.9636193508 -2.40E+01
     2 TBLite/Diag 0.40E+00    0.0     0.00029087       -23.9636194574 -1.07E-07
     3 TBLite/Diag 0.40E+00    0.0     0.00037273       -23.9636194109  4.65E-08
     4 TBLite/Diag 0.40E+00    0.0     0.00032973       -23.9636194949 -8.41E-08
     5 TBLite/Diag 0.40E+00    0.0     0.00006591       -23.9636194981 -3.12E-09
     6 TBLite/Diag 0.40E+00    0.0     0.00001470       -23.9636194981 -6.42E-11
     7 TBLite/Diag 0.40E+00    0.0     0.00000596       -23.9636194982 -6.05E-11
     8 TBLite/Diag 0.40E+00    0.0     0.00000075       -23.9636194982 -6.71E-13
     9 TBLite/Diag 0.40E+00    0.0     0.00000031       -23.9636194982 -1.07E-13
    10 TBLite/Diag 0.40E+00    0.0     0.00000006       -23.9636194982  0.00E+00
    11 TBLite/Diag 0.40E+00    0.0     0.00000002       -23.9636194982 -7.11E-15
    12 TBLite/Diag 0.40E+00    0.0     9.6464E-09       -23.9636194982 -3.55E-15
    13 TBLite/Diag 0.40E+00    0.0     3.6735E-09       -23.9636194982  7.11E-15
    14 TBLite/Diag 0.40E+00    0.0     1.0085E-09       -23.9636194982 -1.07E-14
    15 TBLite/Diag 0.40E+00    0.0     3.1232E-10       -23.9636194982 -1.07E-14

  *** SCF run converged in    15 steps ***


  Core Hamiltonian energy:                                    -24.34934292341221
  Repulsive potential energy:                                   0.31875688584901
  Electrostatic energy:                                         0.07653045019317
  Self-consistent dispersion energy:                           -0.00957668064484
  Non-self consistent dispersion energy:                        0.00001276983008
  Correction for halogen bonding:                               0.00000000000000
  Electronic entropic energy:                                  -0.00000000000000
  Fermi energy:                                                -0.29133243944593

  Total energy:                                               -23.96361949818478
  Total energy (extrapolated to T->0):                        -23.96361949818478

 ENERGY| Total FORCE_EVAL ( QS ) energy [hartree]            -23.963619498184784

 OPT| **************************************************************************
 OPT| Step number                                                             13
 OPT| Optimization method                                                   BFGS
 OPT| Total energy [hartree]                                      -23.9636194982
 OPT| Effective energy change [hartree]                            -0.0000015014
 OPT| Predicted energy change [hartree]                            -0.0000010387
 OPT| Scaling factor                                                0.0000000000
 OPT| Step size                                                     0.0144770460
 OPT| Trust radius                                                  0.4724315332
 OPT| Decrease in energy                                                     YES
 OPT| Used time [s]                                                        0.020
 OPT|
 OPT| Maximum step size                                             0.0144770460
 OPT| Convergence limit for maximum step size                       0.0030000000
 OPT| Maximum step size is converged                                          NO
 OPT|
 OPT| RMS step size                                                 0.0031969778
 OPT| Convergence limit for RMS step size                           0.0015000000
 OPT| RMS step size is converged                                              NO
 OPT|
 OPT| Maximum gradient                                              0.0003691086
 OPT| Convergence limit for maximum gradient                        0.0004500000
 OPT| Maximum gradient is converged                                          YES
 OPT|
 OPT| RMS gradient                                                  0.0001242879
 OPT| Convergence limit for RMS gradient                            0.0003000000
 OPT| RMS gradient is converged                                              YES
 OPT| **************************************************************************
 OPT| Estimated peak process memory after this step [MiB]                    163

 --------------------------
 OPTIMIZATION STEP:     14
 --------------------------

 Extrapolation method: ASPC

 Number of electrons:                                                         42
 Number of occupied orbitals:                                                 21
 Number of molecular orbitals:                                                37

 Number of orbital functions:                                                 37
 Number of independent orbital functions:                                     37


 SCF WAVEFUNCTION OPTIMIZATION

  Step     Update method      Time    Convergence         Total energy    Change
  ------------------------------------------------------------------------------
     1 TBLite/Diag 0.40E+00    0.0     0.01684253       -23.9636208586 -2.40E+01
     2 TBLite/Diag 0.40E+00    0.0     0.00021224       -23.9636209605 -1.02E-07
     3 TBLite/Diag 0.40E+00    0.0     0.00024940       -23.9636209806 -2.01E-08
     4 TBLite/Diag 0.40E+00    0.0     0.00012046       -23.9636209935 -1.29E-08
     5 TBLite/Diag 0.40E+00    0.0     0.00006985       -23.9636209953 -1.75E-09
     6 TBLite/Diag 0.40E+00    0.0     0.00002881       -23.9636209958 -5.68E-10
     7 TBLite/Diag 0.40E+00    0.0     0.00000471       -23.9636209959 -5.00E-11
     8 TBLite/Diag 0.40E+00    0.0     0.00000040       -23.9636209959 -1.56E-13
     9 TBLite/Diag 0.40E+00    0.0     0.00000018       -23.9636209959 -1.42E-14
    10 TBLite/Diag 0.40E+00    0.0     0.00000006       -23.9636209959  1.07E-14
    11 TBLite/Diag 0.40E+00    0.0     0.00000002       -23.9636209959 -2.49E-14
    12 TBLite/Diag 0.40E+00    0.0     5.9771E-09       -23.9636209959  1.07E-14
    13 TBLite/Diag 0.40E+00    0.0     2.0925E-09       -23.9636209959 -7.11E-15
    14 TBLite/Diag 0.40E+00    0.0     4.9856E-10       -23.9636209959  3.55E-15

  *** SCF run converged in    14 steps ***


  Core Hamiltonian energy:                                    -24.34938764243847
  Repulsive potential energy:                                   0.31880788297414
  Electrostatic energy:                                         0.07652278104473
  Self-consistent dispersion energy:                           -0.00957678242111
  Non-self consistent dispersion energy:                        0.00001276496512
  Correction for halogen bonding:                               0.00000000000000
  Electronic entropic energy:                                  -0.00000000000000
[...]
  ------------------------------------------------------------------------------
     1 TBLite/Diag 0.40E+00    0.0     0.00096611       -23.9636221551 -2.40E+01
     2 TBLite/Diag 0.40E+00    0.0     0.00006869       -23.9636221568 -1.76E-09
     3 TBLite/Diag 0.40E+00    0.0     0.00007085       -23.9636221561  7.23E-10
     4 TBLite/Diag 0.40E+00    0.0     0.00004842       -23.9636221576 -1.52E-09
     5 TBLite/Diag 0.40E+00    0.0     0.00000869       -23.9636221577 -6.21E-11
     6 TBLite/Diag 0.40E+00    0.0     0.00000087       -23.9636221577 -1.42E-13
     7 TBLite/Diag 0.40E+00    0.0     0.00000050       -23.9636221577 -5.26E-13
     8 TBLite/Diag 0.40E+00    0.0     0.00000006       -23.9636221577  3.55E-15
     9 TBLite/Diag 0.40E+00    0.0     0.00000002       -23.9636221577 -1.78E-14
    10 TBLite/Diag 0.40E+00    0.0     0.00000001       -23.9636221577  1.78E-14
    11 TBLite/Diag 0.40E+00    0.0     3.8140E-09       -23.9636221577 -1.07E-14
    12 TBLite/Diag 0.40E+00    0.0     6.1399E-10       -23.9636221577 -7.11E-15

  *** SCF run converged in    12 steps ***


  Core Hamiltonian energy:                                    -24.34938493297166
  Repulsive potential energy:                                   0.31881862800134
  Electrostatic energy:                                         0.07650793102293
  Self-consistent dispersion energy:                           -0.00957653945364
  Non-self consistent dispersion energy:                        0.00001275572384
  Correction for halogen bonding:                               0.00000000000000
  Electronic entropic energy:                                  -0.00000000000000
  Fermi energy:                                                -0.29126506522909

  Total energy:                                               -23.96362215767719
  Total energy (extrapolated to T->0):                        -23.96362215767719

 ENERGY| Total FORCE_EVAL ( QS ) energy [hartree]            -23.963622157677186

 OPT| **************************************************************************
 OPT| Step number                                                             17
 OPT| Optimization method                                                   BFGS
 OPT| Total energy [hartree]                                      -23.9636221577
 OPT| Effective energy change [hartree]                            -0.0000000610
 OPT| Predicted energy change [hartree]                            -0.0000000463
 OPT| Scaling factor                                                0.0000000000
 OPT| Step size                                                     0.0007813461
 OPT| Trust radius                                                  0.4724315332
 OPT| Decrease in energy                                                     YES
 OPT| Used time [s]                                                        0.017
 OPT|
 OPT| Maximum step size                                             0.0007813461
 OPT| Convergence limit for maximum step size                       0.0030000000
 OPT| Maximum step size is converged                                         YES
 OPT|
 OPT| RMS step size                                                 0.0002181036
 OPT| Convergence limit for RMS step size                           0.0015000000
 OPT| RMS step size is converged                                             YES
 OPT|
 OPT| Maximum gradient                                              0.0000321690
 OPT| Convergence limit for maximum gradient                        0.0004500000
 OPT| Maximum gradient is converged                                          YES
 OPT|
 OPT| RMS gradient                                                  0.0000141309
 OPT| Convergence limit for RMS gradient                            0.0003000000
 OPT| RMS gradient is converged                                              YES
 OPT| **************************************************************************
 OPT| Estimated peak process memory after this step [MiB]                    163

 *******************************************************************************
 ***                    GEOMETRY OPTIMIZATION COMPLETED                      ***
 *******************************************************************************

 write_final_structure: Optimization converged, writing XYZ file gladly:
  cytosine_GFN2_mol_geoopt-FINAL-1_17.xyz

 write_final_structure: Optimization converged, writing CIF file gladly:
  cytosine_GFN2_mol_geoopt-FINAL-1_17.cif

 write_final_structure: Done!

                    Reevaluating energy at the minimum

 Extrapolation method: ASPC

 Number of electrons:                                                         42
 Number of occupied orbitals:                                                 21
 Number of molecular orbitals:                                                37

 Number of orbital functions:                                                 37
 Number of independent orbital functions:                                     37


 SCF WAVEFUNCTION OPTIMIZATION

  Step     Update method      Time    Convergence         Total energy    Change
  ------------------------------------------------------------------------------
     1 TBLite/Diag 0.40E+00    0.0     6.0742E-10       -23.9636221577 -2.40E+01

  *** SCF run converged in     1 steps ***


  Core Hamiltonian energy:                                    -24.34938493302915
  Repulsive potential energy:                                   0.31881862800134
  Electrostatic energy:                                         0.07650793108104
  Self-consistent dispersion energy:                           -0.00957653945424
  Non-self consistent dispersion energy:                        0.00001275572384
  Correction for halogen bonding:                               0.00000000000000
  Electronic entropic energy:                                  -0.00000000000000
  Fermi energy:                                                -0.29126506509127

  Total energy:                                               -23.96362215767717
  Total energy (extrapolated to T->0):                        -23.96362215767717

 ENERGY| Total FORCE_EVAL ( QS ) energy [hartree]            -23.963622157677168

 -------------------------------------------------------------------------------
 -                                                                             -
 -                                DBCSR STATISTICS                             -
 -                                                                             -
 -------------------------------------------------------------------------------
 COUNTER                                    TOTAL       BLAS       SMM       ACC
 flops     1 x     5 x     1                20000       0.0%    100.0%      0.0%     
 flops     1 x    32 x     1               128000       0.0%    100.0%      0.0%     
 flops     1 x     5 x     4               128000       0.0%    100.0%      0.0%     
 flops     4 x     5 x     1               128000       0.0%    100.0%      0.0%     
 flops     1 x     1 x    37               335220       0.0%    100.0%      0.0%     
 flops     1 x    32 x     4               819200       0.0%    100.0%      0.0%     
 flops     4 x    32 x     1               819200       0.0%    100.0%      0.0%     
 flops     4 x     5 x     4               819200       0.0%    100.0%      0.0%     
 flops     1 x     4 x    37              1787840       0.0%    100.0%      0.0%     
 flops     4 x     1 x    37              1787840       0.0%    100.0%      0.0%     
 flops     4 x    32 x     4              5242880       0.0%    100.0%      0.0%     
 flops     4 x     4 x    37             12872448       0.0%    100.0%      0.0%     
 flops inhomo. stacks                           0       0.0%      0.0%      0.0%
 flops total                        24.887828E+06       0.0%    100.0%      0.0%
 flops max/rank                     24.887828E+06       0.0%    100.0%      0.0%
 matmuls inhomo. stacks                         0       0.0%      0.0%      0.0%
 matmuls total                              54522       0.0%    100.0%      0.0%
 number of processed stacks                  1848       0.0%    100.0%      0.0%
 average stack size                                     0.0      29.5       0.0
 marketing flops                    25.468876E+06
 -------------------------------------------------------------------------------
 # multiplications                            382
 max memory usage/rank              13.670588E+09
 # max total images/rank                        1
 # max 3D layers                                1
 # MPI messages exchanged                       0
 -------------------------------------------------------------------------------
 -                                                                             -
 -                      DBCSR MESSAGE PASSING PERFORMANCE                      -
 -                                                                             -
 -------------------------------------------------------------------------------
 ROUTINE             CALLS      AVE VOLUME [Bytes]
 MP_Bcast               13                     12.
 MP_Allreduce         1793                      8.
 MP_Alltoall         12896                   7696.
 MP_ISend             1528                    819.
 MP_IRecv             1528                    819.
 -------------------------------------------------------------------------------

 -------------------------------------------------------------------------------
 -                                                                             -
 -                          OFFLOAD MEMPOOL STATISTICS                         -
 -                                                                             -
 -------------------------------------------------------------------------------
 Memory consumption                Number of allocations  Used [MiB]  Size [MiB]
 Device                                                1           0           0
 Host                                                  1           0           0
 -------------------------------------------------------------------------------

 MEMORY| Estimated peak process memory [MiB]                                 164

 -------------------------------------------------------------------------------
 -                                                                             -
 -                         MESSAGE PASSING PERFORMANCE                         -
 -                                                                             -
 -------------------------------------------------------------------------------

 ROUTINE             CALLS      AVE VOLUME [Bytes]
 MP_Group                1
 MP_Bcast              585                    155.
 MP_Allreduce         9345                     97.
 MP_Sync               303
 MP_comm_split         302
 -------------------------------------------------------------------------------


 -------------------------------------------------------------------------------
 -                                                                             -
 -                           R E F E R E N C E S                               -
 -                                                                             -
 -------------------------------------------------------------------------------
 
 CP2K version 2026.1 (Development Version), the CP2K developers group (2026).
 CP2K is freely available from https://www.cp2k.org/ .
 
 M. Iannuzzi, J. Wilhelm, F. Stein, A. Bussy, H. Elgabarty, D. Golze, A. Hehn, 
 M. Graml, S. Marek, B. Sertcan Gökmen, C. Schran, H. Forbert, R. Z. 
 Khaliullin, A. Kozhevnikov, M. Taillefumier, R. Meli, V. V. Rybkin, M. Brehm, 
 R. Schade, O. Schütt, J. V. Pototschnig, H. Mirhosseini, A. Knüpfer, D. Marx, 
 M. Krack, J. Hutter, T. D. Kühne.
 J. Phys. Chem. B 130, 1237-1310 (2026).
 The CP2K Program Package Made Simple.
 https://doi.org/10.1021/acs.jpcb.5c05851

 A. Katbashev, M. Stahn, T. Rose, V. Alizadeh, M. Friede, C. Plett, P. 
 Steinbach, S. Ehlert.
 J. Phys. Chem. A 129, 2667-2682 (2025).
 Overview on Building Blocks and Applications of Efficient and Robust Extended 
 Tight Binding.
 https://doi.org/10.1021/acs.jpca.4c08263

 T. D. Kühne, M. Iannuzzi, M. Del Ben, V. V. Rybkin, P. Seewald, F. Stein, T. 
 Laino, R. Z. Khaliullin, O. Schütt, F. Schiffmann, D. Golze, J. Wilhelm, S. 
 Chulkov, M. H. Bani-Hashemian, V. Weber, U. Borstnik, M. Taillefumier, A. S. 
 Jakobovits, A. Lazzaro, H. Pabst, T. Müller, R. Schade, M. Guidon, S. 
 Andermatt, N. Holmberg, G. K. Schenter, A. Hehn, A. Bussy, F. Belleflamme, G. 
 Tabacchi, A. Glöß, M. Lass, I. Bethune, C. J. Mundy, C. Plessl, M. Watkins, 
 J. VandeVondele, M. Krack, J. Hutter.
 J. Chem. Phys. 152, 194103 (2020).
 CP2K: An electronic structure and molecular dynamics software package - 
 Quickstep: Efficient and accurate electronic structure calculations.
 https://doi.org/10.1063/5.0007045

 P. Pracht, E. Caldeweyher, S. Ehlert, S. Grimme.
 ChemRxiv, (2019).
 A Robust Non-Self-Consistent Tight-Binding Quantum Chemistry Method for large 
 Molecules.
 https://doi.org/10.26434/chemrxiv.8326202.v1

 S. Grimme, C. Bannwarth, P. Shushkov.
 J. Chem. Theory Comput. 13, 1989 (2017).
 A Robust and Accurate Tight-Binding Quantum Chemical Method for Structures, 
 Vibrational Frequencies, and Noncovalent Interactions of Large Molecular 
 Systems Parametrized for All spd-Block Elements (Z = 1-86).
 https://doi.org/10.1021/acs.jctc.7b00118

 O. Schuett, P. Messmer, J. Hutter, J. VandeVondele.
 Electronic Structure Calculations on Graphics Processing Units, 173-190 (2016).
 GPU-Accelerated Sparse Matrix-Matrix Multiplication for Linear Scaling Density 
 Functional Theory.
 https://doi.org/10.1002/9781118670712.ch8

 A. Heinecke, G. Henry, M. Hutchinson, H. Pabst.
 Proceedings of Intl. Supercomputing Conference, 981-991 (2016).
 LIBXSMM: Accelerating Small Matrix Multiplications by Runtime Code Generation.
 https://doi.org/10.1109/SC.2016.83

 U. Borstnik, J. VandeVondele, V. Weber, J. Hutter.
 Parallel Comput. 40, 47-58 (2014).
 Sparse matrix multiplication: The distributed block-compressed sparse row 
 library.
 https://doi.org/10.1016/j.parco.2014.03.012

 T. D. Kühne, M. Krack, F. R. Mohamed, M. Parrinello.
 Phys. Rev. Lett. 98, 066401 (2007).
 Efficient and accurate Car-Parrinello-like approach to Born-Oppenheimer 
 molecular dynamics.
 https://doi.org/10.1103/PhysRevLett.98.066401

 M. Frigo, S. G. Johnson.
 Proc. IEEE 93, 216-231 (2005).
 The design and implementation of FFTW3.
 https://doi.org/10.1109/JPROC.2004.840301

 J. Kolafa.
 J. Comput. Chem. 25, 335-342 (2004).
 Time-reversible always stable predictor-corrector method for molecular dynamics 
 of polarizable molecules.
 https://doi.org/10.1002/jcc.10385

 N. D. Mermin.
 Phys. Rev. 137, A1441-A1443 (1965).
 Thermal Properties of the Inhomogeneous Electron Gas.
 https://doi.org/10.1103/PhysRev.137.A1441


 -------------------------------------------------------------------------------
 -                                                                             -
 -                                T I M I N G                                  -
 -                                                                             -
 -------------------------------------------------------------------------------
 SUBROUTINE                       CALLS  ASD         SELF TIME        TOTAL TIME
                                MAXIMUM       AVERAGE  MAXIMUM  AVERAGE  MAXIMUM
 CP2K                                 1  1.0    0.002    0.002    0.371    0.371
 cp_geo_opt                           1  2.0    0.000    0.000    0.366    0.366
 geoopt_bfgs                          1  3.0    0.001    0.001    0.366    0.366
 cp_eval_at                          19  4.0    0.001    0.001    0.354    0.354
 qs_forces                           18  5.0    0.001    0.001    0.349    0.349
 qs_energies                         19  5.9    0.000    0.000    0.318    0.318
 scf_env_do_scf                      19  6.9    0.000    0.000    0.260    0.260
 scf_env_do_scf_inner_loop          266  8.0    0.027    0.027    0.259    0.259
 qs_scf_new_mos                     266  9.0    0.001    0.001    0.171    0.171
 cp_dbcsr_plus_fm_fm_t              302 10.9    0.001    0.001    0.083    0.083
 calculate_dm_sparse                284 10.0    0.000    0.000    0.079    0.079
 dbcsr_multiply_generic             382 12.0    0.004    0.004    0.070    0.070
 rebuild_ks_matrix                  284  9.8    0.000    0.000    0.063    0.063
 build_tblite_ks_matrix             284 10.8    0.059    0.059    0.063    0.063
 qs_ks_update_qs_env                266  9.0    0.000    0.000    0.050    0.050
 copy_dbcsr_to_fm                   612 10.5    0.002    0.002    0.048    0.048
 dbcsr_complete_redistribute       1296 12.2    0.026    0.026    0.046    0.046
 eigensolver                        266 10.0    0.002    0.002    0.040    0.040
 make_m2s                           764 13.0    0.002    0.002    0.040    0.040
 cp_fm_syevd                        302 10.7    0.000    0.000    0.037    0.037
 build_tblite_matrices               37  7.0    0.016    0.016    0.034    0.034
 init_scf_run                        19  6.9    0.000    0.000    0.032    0.032
 scf_env_initial_rho_setup           19  7.9    0.000    0.000    0.029    0.029
 qs_diis_b_step                     247 10.0    0.001    0.001    0.029    0.029
 wfi_extrapolate                     19  8.9    0.000    0.000    0.029    0.029
 cp_fm_syevd_base                   302 11.7    0.028    0.028    0.028    0.028
 copy_fm_to_dbcsr                   684 11.8    0.001    0.001    0.024    0.024
 qs_energies_init_hamiltonians       19  6.9    0.000    0.000    0.019    0.019
 cp_dbcsr_sm_fm_multiply             80 10.4    0.000    0.000    0.019    0.019
 make_images                        764 14.0    0.005    0.005    0.018    0.018
 tb_get_multipole                    37  8.0    0.013    0.013    0.018    0.018
 qs_ks_update_qs_env_forces          18  6.0    0.000    0.000    0.016    0.016
 dbcsr_finalize                    6598 12.3    0.004    0.004    0.015    0.015
 multiply_cannon                    382 13.0    0.006    0.006    0.014    0.014
 dbcsr_desymmetrize_deep            612 11.5    0.006    0.006    0.012    0.012
 dbcsr_create_new                  9733 13.1    0.008    0.008    0.011    0.011
 dbcsr_crop_matrix                  604 13.9    0.001    0.001    0.010    0.010
 cp_dbcsr_sm_fm_multiply_core        80 11.4    0.000    0.000    0.010    0.010
 parallel_gemm_fm_gemm              672 10.7    0.000    0.000    0.008    0.008
 dbcsr_copy_submatrix               604 14.9    0.003    0.003    0.008    0.008
 cp_fm_gemm                         672 11.7    0.008    0.008    0.008    0.008
 reorthogonalize_vectors             18  9.9    0.000    0.000    0.008    0.008
 make_basis_lowdin                   18 10.9    0.000    0.000    0.008    0.008
 dbcsr_merge_all                   2202 14.9    0.004    0.004    0.008    0.008
 -------------------------------------------------------------------------------

 The number of warnings for this run is : 0
 
 -------------------------------------------------------------------------------
  **** **** ******  **  PROGRAM ENDED AT                 2026-05-23 22:46:21.171
 ***** ** ***  *** **   PROGRAM RAN ON                                spark-c86c
 **    ****   ******    PROGRAM RAN BY                                  kuehne88
 ***** **    ** ** **   PROGRAM PROCESS ID                               2227074
  **** **  *******  **  PROGRAM STOPPED IN /home/kuehne88/periodic-gfn2-benchmar
                                           ks/X23b/runs/molecule_geoopt/GFN2/cyt
                                           osine_GFN2_mol_geoopt
