 DBCSR| CPU Multiplication driver                                           XSMM (U)
 DBCSR| Multrec recursion limit                                              512 (U)
 DBCSR| Multiplication stack size                                           1000 (D)
 DBCSR| Maximum elements for images                                    UNLIMITED (U)
 DBCSR| Multiplicative factor virtual images                                   1 (U)
 DBCSR| Use multiplication densification                                       T (D)
 DBCSR| Multiplication size stacks                                             3 (U)
 DBCSR| Use memory pool for CPU allocation                                     F (U)
 DBCSR| Number of 3D layers                                               SINGLE (U)
 DBCSR| Use MPI memory allocation                                              F (U)
 DBCSR| Use RMA algorithm                                                      F (U)
 DBCSR| Use Communication thread                                               T (U)
 DBCSR| Communication thread load                                             87 (D)
 DBCSR| MPI: My process id                                                     0
 DBCSR| MPI: Number of processes                                               1
 DBCSR| OMP: Current number of threads                                         1
 DBCSR| OMP: Max number of threads                                             1
 DBCSR| Split modifier for TAS multiplication algorithm                  1.0E+00 (U)


  **** **** ******  **  PROGRAM STARTED AT               2026-05-23 22:47:20.416
 ***** ** ***  *** **   PROGRAM STARTED ON                            spark-c86c
 **    ****   ******    PROGRAM STARTED BY                              kuehne88
 ***** **    ** ** **   PROGRAM PROCESS ID                               2268645
  **** **  *******  **  PROGRAM STARTED IN /home/kuehne88/periodic-gfn2-benchmar
                                           ks/X23b/runs/cellopt_gamma/GFN2/co2_G
                                           FN2_gamma_cellopt

 CP2K| version string:                 CP2K version 2026.1 (Development Version)
 CP2K| source code revision number:                                   0622d442e4
 CP2K| cp2kflags: omp fftw3 libxc parallel scalapack mpi_f08 xsmm spglib libdftd
 CP2K|            4 dftd4_v3 mctc-lib tblite
 CP2K| is freely available from                            https://www.cp2k.org/
 CP2K| Program compiled at                                   2026-05-23 22:05:08
 CP2K| Program compiled on                                            spark-c86c
 CP2K| Program compiled for                                              aarch64
 CP2K| Data directory path    /home/kuehne88/cp2k-master-tblite-20260523/install
 CP2K| Input file name                                co2_GFN2_gamma_cellopt.inp

 GLOBAL| Force Environment number                                              1
 GLOBAL| Basis set file name                                           BASIS_SET
 GLOBAL| Potential file name                                           POTENTIAL
 GLOBAL| MM Potential file name                                     MM_POTENTIAL
 GLOBAL| Coordinate file name                                      __STD_INPUT__
 GLOBAL| Method name                                                        CP2K
 GLOBAL| Project name                                    co2_GFN2_gamma_cell_opt
 GLOBAL| Run type                                                       CELL_OPT
 GLOBAL| FFT library                                                       FFTW3
 GLOBAL| Diagonalization library                                       ScaLAPACK
 GLOBAL| Cholesky decomposition library                                ScaLAPACK
 GLOBAL| DGEMM library                                                      BLAS
 GLOBAL| Direct generalized diagonalization requested                          F
 GLOBAL| Orthonormality check for eigenvectors                          DISABLED
 GLOBAL| Matrix multiplication library                                 ScaLAPACK
 GLOBAL| All-to-all communication in single precision                          F
 GLOBAL| FFTs using library dependent lengths                                  F
 GLOBAL| Grid backend                                                       AUTO
 GLOBAL| Global print level                                                  LOW
 GLOBAL| MPI I/O enabled                                                       T
 GLOBAL| Total number of message passing processes                             1
 GLOBAL| Number of distributed systems (nodes)                                 1
 GLOBAL| Number of threads for this process                                    1
 GLOBAL| This output is from process                                           0
 GLOBAL| OpenMP stack size per thread (OMP_STACKSIZE)                    default
 GLOBAL| CPU model name                                                  UNKNOWN
 GLOBAL| CPUID                                                              2200
 GLOBAL| Compiled for CPUID                                                 2000

 *** HINT in environment.F:970 :: The compiler target flags (arm_arch64)   ***
 *** used to build this binary cannot exploit all extensions of this CPU   ***
 *** model (arm_sve256). Consider compiler target flags as part of FCFLAGS ***
 *** and CFLAGS (ARCH file).                                               ***


 MEMORY| system memory details [Kb]
 MEMORY|                        rank 0           min           max       average
 MEMORY| MemTotal            125508532     125508532     125508532     125508532
 MEMORY| MemFree             104350236     104350236     104350236     104350236
 MEMORY| Buffers                867944        867944        867944        867944
 MEMORY| Cached               14073876      14073876      14073876      14073876
 MEMORY| Slab                  1596080       1596080       1596080       1596080
 MEMORY| SReclaimable           917940        917940        917940        917940
 MEMORY| MemLikelyFree       120209996     120209996     120209996     120209996


 GENERATE|  Preliminary Number of Bonds generated:                             0
 GENERATE|  Achieved consistency in connectivity generation.


                  #####   #####        #     #   #     #       #          
                 #     # #     #      #    ##### #     #   # #####  ####  
                 #     # #           #       #   ###   #       #   #    # 
                 #     #  #####     #        #   #  #  #   #   #   ###### 
                 #   # #       #   #         #   #   # #   #   #   #      
                 #    #  #     #  #          #   #  #  # # #   #    #   # 
                  #### #  #####  #           #   ###   ##  #   #     ###  

                                   GFN2-xTB  
                                 Version 0.0                       
                            Johann V. Pototschnig                  



 TOTAL NUMBERS AND MAXIMUM NUMBERS

  Total number of            - Atomic kinds:                                   2
                             - Atoms:                                         12
                             - Shell sets:                                    24
                             - Shells:                                        24
                             - Primitive Cartesian functions:                 96
                             - Cartesian basis functions:                     48
                             - Spherical basis functions:                     48

  Maximum angular momentum of the orbital basis functions:                     1


 SCF PARAMETERS         Density guess:                                     MOPAC
                        --------------------------------------------------------
                        max_scf:                                             300
                        max_scf_history:                                       0
                        max_diis:                                              4
                        --------------------------------------------------------
                        eps_scf:                                        1.00E-09
                        eps_scf_history:                                0.00E+00
                        eps_diis:                                       1.00E-01
                        eps_eigval:                                     1.00E-05
                        --------------------------------------------------------
                        level_shift [a.u.]:                             0.000000
                        added MOs                                        16    0
                        --------------------------------------------------------
                        Mixing method:                           DIRECT_P_MIXING
                        --------------------------------------------------------
                        Smear method:                                FERMI_DIRAC
                        Electronic temperature [K]:                        300.0
                        Electronic temperature [a.u.]:                  9.50E-04
                        Accuracy threshold:                             1.00E-06
                        --------------------------------------------------------
                        No outer SCF

 CELL_OPT| Pressure tolerance [bar]:                                       100.0
 CELL_OPT| Keep volume of cell:                                               NO
 CELL_OPT| Keep angles between the cell vectors:                              NO
 CELL_OPT| Keep cell symmetry:                                                NO
 CELL_OPT| Constraint:                                                      NONE

 BFGS| Use rational function optimization for step estimation:                NO
 BFGS| Use model Hessian for initial guess:                                   NO
 BFGS| Restart Hessian:                                                       NO
 BFGS| Trust radius:                                                       0.472

 *******************************************************************************
 ***                     STARTING   CELL   OPTIMIZATION                      ***
 ***                                   BFGS                                  ***
 *******************************************************************************

 CELL| Volume [angstrom^3]:                                           177.883611
 CELL| Vector a [angstrom]:       5.624     0.000     0.000   |a| =     5.624000
 CELL| Vector b [angstrom]:       0.000     5.624     0.000   |b| =     5.624000
 CELL| Vector c [angstrom]:       0.000     0.000     5.624   |c| =     5.624000
 CELL| Angle (b,c), alpha [degree]:                                    90.000000
 CELL| Angle (a,c), beta  [degree]:                                    90.000000
 CELL| Angle (a,b), gamma [degree]:                                    90.000000
 CELL| Numerically orthorhombic:                                             YES
 CELL| Periodicity                                                           XYZ

 Extrapolation method: initial_guess

 Number of electrons:                                                         64
 Number of occupied orbitals:                                                 32
 Number of molecular orbitals:                                                48

 Number of orbital functions:                                                 48
 Number of independent orbital functions:                                     48


 SCF WAVEFUNCTION OPTIMIZATION

  Step     Update method      Time    Convergence         Total energy    Change
  ------------------------------------------------------------------------------
     1 TBLite/Diag 0.40E+00    0.0     0.69477091       -40.2979477699 -4.03E+01
     2 TBLite/Diag 0.40E+00    0.0     0.29532997       -41.2389879497 -9.41E-01
     3 TBLite/Diag 0.40E+00    0.0     0.06074222       -41.2621194719 -2.31E-02
     4 TBLite/Diag 0.40E+00    0.0     0.02539546       -41.2623022214 -1.83E-04
     5 TBLite/Diag 0.40E+00    0.0     0.01341053       -41.2642067795 -1.90E-03
     6 TBLite/Diag 0.40E+00    0.0     0.00066993       -41.2642111759 -4.40E-06
     7 TBLite/Diag 0.40E+00    0.0     0.00005170       -41.2642112064 -3.04E-08
     8 TBLite/Diag 0.40E+00    0.0     0.00000357       -41.2642112064 -3.98E-11
     9 TBLite/Diag 0.40E+00    0.0     0.00000122       -41.2642112064 -1.83E-11
    10 TBLite/Diag 0.40E+00    0.0     0.00000020       -41.2642112064 -2.84E-14
    11 TBLite/Diag 0.40E+00    0.0     0.00000015       -41.2642112064 -1.35E-13
    12 TBLite/Diag 0.40E+00    0.0     0.00000001       -41.2642112064  0.00E+00
    13 TBLite/Diag 0.40E+00    0.0     0.00000002       -41.2642112064 -2.84E-14
    14 TBLite/Diag 0.40E+00    0.0     2.9219E-10       -41.2642112064  1.42E-14

  *** SCF run converged in    14 steps ***


  Core Hamiltonian energy:                                    -41.83102035408228
  Repulsive potential energy:                                   0.44992134370496
  Electrostatic energy:                                         0.14571041946210
  Self-consistent dispersion energy:                           -0.03363739692579
  Non-self consistent dispersion energy:                        0.00481478140056
  Correction for halogen bonding:                               0.00000000000000
  Electronic entropic energy:                                  -0.00000000000000
  Fermi energy:                                                -0.26906658924796

  Total energy:                                               -41.26421120644043
  Total energy (extrapolated to T->0):                        -41.26421120644043

 ENERGY| Total FORCE_EVAL ( QS ) energy [hartree]            -41.264211206440429

 OPT| **************************************************************************
 OPT| Step number                                                              0
 OPT| Optimization method                                                   BFGS
 OPT| Total energy [hartree]                                      -41.2642112064
 OPT| Internal pressure [bar]                                  -30336.9484007929
 OPT| Used time [s]                                                        0.353
 OPT| **************************************************************************
 OPT| Estimated peak process memory [MiB]                                    161

 --------------------------
 OPTIMIZATION STEP:      1
 --------------------------

 CELL| Volume [angstrom^3]:                                           177.299440
 CELL| Vector a [angstrom]:       5.618     0.000     0.000   |a| =     5.617836
 CELL| Vector b [angstrom]:      -0.000     5.618     0.000   |b| =     5.617837
 CELL| Vector c [angstrom]:       0.000    -0.000     5.618   |c| =     5.617837
 CELL| Angle (b,c), alpha [degree]:                                    90.000000
 CELL| Angle (a,c), beta  [degree]:                                    90.000000
 CELL| Angle (a,b), gamma [degree]:                                    90.000000
 CELL| Numerically orthorhombic:                                              NO
 CELL| Periodicity                                                           XYZ

 Extrapolation method: ASPC

 Number of electrons:                                                         64
 Number of occupied orbitals:                                                 32
 Number of molecular orbitals:                                                48

 Number of orbital functions:                                                 48
 Number of independent orbital functions:                                     48


 SCF WAVEFUNCTION OPTIMIZATION

  Step     Update method      Time    Convergence         Total energy    Change
  ------------------------------------------------------------------------------
     1 TBLite/Diag 0.40E+00    0.0     0.02797992       -41.2658044699 -4.13E+01
     2 TBLite/Diag 0.40E+00    0.0     0.00274314       -41.2658612956 -5.68E-05
     3 TBLite/Diag 0.40E+00    0.0     0.00125422       -41.2658644691 -3.17E-06
     4 TBLite/Diag 0.40E+00    0.0     0.00061773       -41.2658678679 -3.40E-06
     5 TBLite/Diag 0.40E+00    0.0     0.00002902       -41.2658678764 -8.45E-09
     6 TBLite/Diag 0.40E+00    0.0     0.00000324       -41.2658678765 -9.03E-11
     7 TBLite/Diag 0.40E+00    0.0     0.00000072       -41.2658678765 -1.39E-12
     8 TBLite/Diag 0.40E+00    0.0     0.00000033       -41.2658678765 -4.05E-13
     9 TBLite/Diag 0.40E+00    0.0     3.8538E-09       -41.2658678765 -7.11E-15
    10 TBLite/Diag 0.40E+00    0.0     1.5553E-09       -41.2658678765  0.00E+00
    11 TBLite/Diag 0.40E+00    0.0     3.5955E-10       -41.2658678765  7.11E-15

  *** SCF run converged in    11 steps ***


  Core Hamiltonian energy:                                    -41.88138418514282
  Repulsive potential energy:                                   0.49967847112257
  Electrostatic energy:                                         0.14475384850241
  Self-consistent dispersion energy:                           -0.03375982463439
  Non-self consistent dispersion energy:                        0.00484381368428
  Correction for halogen bonding:                               0.00000000000000
  Electronic entropic energy:                                  -0.00000000000000
  Fermi energy:                                                -0.25715919006455

  Total energy:                                               -41.26586787646794
  Total energy (extrapolated to T->0):                        -41.26586787646794

 ENERGY| Total FORCE_EVAL ( QS ) energy [hartree]            -41.265867876467944

 OPT| **************************************************************************
 OPT| Step number                                                              1
 OPT| Optimization method                                                   BFGS
 OPT| Total energy [hartree]                                      -41.2658678765
 OPT| Internal pressure [bar]                                   12577.5619854385
 OPT| Effective energy change [hartree]                            -0.0016566700
 OPT| Predicted energy change [hartree]                            -0.0023690540
 OPT| Scaling factor                                                0.0000000000
 OPT| Step size                                                     0.0134621693
 OPT| Trust radius                                                  0.4724315332
 OPT| Decrease in energy                                                     YES
 OPT| Used time [s]                                                        0.349
 OPT|
 OPT| Maximum step size                                             0.0134621693
 OPT| Convergence limit for maximum step size                       0.0030000000
 OPT| Maximum step size is converged                                          NO
 OPT|
 OPT| RMS step size                                                 0.0106213039
 OPT| Convergence limit for RMS step size                           0.0015000000
 OPT| RMS step size is converged                                              NO
 OPT|
 OPT| Maximum gradient                                              0.0048189193
 OPT| Convergence limit for maximum gradient                        0.0004500000
 OPT| Maximum gradient is converged                                           NO
 OPT|
 OPT| RMS gradient                                                  0.0034240245
 OPT| Convergence limit for RMS gradient                            0.0003000000
 OPT| RMS gradient is converged                                               NO
 OPT|
 OPT| Pressure deviation [bar]                                  12577.5619854385
 OPT| Pressure tolerance [bar]                                    100.0000000000
 OPT| Pressure is converged                                                   NO
 OPT| **************************************************************************
 OPT| Estimated peak process memory after this step [MiB]                    162

 --------------------------
 OPTIMIZATION STEP:      2
 --------------------------

 CELL| Volume [angstrom^3]:                                           177.481955
 CELL| Vector a [angstrom]:       5.620     0.000     0.000   |a| =     5.619763
 CELL| Vector b [angstrom]:      -0.000     5.620     0.000   |b| =     5.619764
 CELL| Vector c [angstrom]:       0.000    -0.000     5.620   |c| =     5.619765
 CELL| Angle (b,c), alpha [degree]:                                    90.000000
 CELL| Angle (a,c), beta  [degree]:                                    90.000000
 CELL| Angle (a,b), gamma [degree]:                                    90.000000
 CELL| Numerically orthorhombic:                                              NO
 CELL| Periodicity                                                           XYZ

 Extrapolation method: ASPC

 Number of electrons:                                                         64
 Number of occupied orbitals:                                                 32
 Number of molecular orbitals:                                                48

 Number of orbital functions:                                                 48
 Number of independent orbital functions:                                     48


 SCF WAVEFUNCTION OPTIMIZATION

  Step     Update method      Time    Convergence         Total energy    Change
  ------------------------------------------------------------------------------
     1 TBLite/Diag 0.40E+00    0.0     0.00688755       -41.2660435130 -4.13E+01
     2 TBLite/Diag 0.40E+00    0.0     0.00068333       -41.2660469807 -3.47E-06
     3 TBLite/Diag 0.40E+00    0.0     0.00031662       -41.2660471857 -2.05E-07
     4 TBLite/Diag 0.40E+00    0.0     0.00015426       -41.2660474002 -2.15E-07
     5 TBLite/Diag 0.40E+00    0.0     0.00000746       -41.2660474008 -5.78E-10
     6 TBLite/Diag 0.40E+00    0.0     0.00000344       -41.2660474009 -4.56E-11
     7 TBLite/Diag 0.40E+00    0.0     0.00000014       -41.2660474009 -1.49E-13
     8 TBLite/Diag 0.40E+00    0.0     0.00000007       -41.2660474009 -7.11E-15
     9 TBLite/Diag 0.40E+00    0.0     1.2736E-09       -41.2660474009 -1.42E-14
    10 TBLite/Diag 0.40E+00    0.0     3.0869E-10       -41.2660474009  2.13E-14

  *** SCF run converged in    10 steps ***


  Core Hamiltonian energy:                                    -41.86928306455946
  Repulsive potential energy:                                   0.48712569796183
  Electrostatic energy:                                         0.14499718422242
  Self-consistent dispersion energy:                           -0.03372179762617
  Non-self consistent dispersion energy:                        0.00483457914360
  Correction for halogen bonding:                               0.00000000000000
  Electronic entropic energy:                                  -0.00000000000000
  Fermi energy:                                                -0.26009617414827

  Total energy:                                               -41.26604740085779
  Total energy (extrapolated to T->0):                        -41.26604740085779

 ENERGY| Total FORCE_EVAL ( QS ) energy [hartree]            -41.266047400857786

 OPT| **************************************************************************
 OPT| Step number                                                              2
 OPT| Optimization method                                                   BFGS
 OPT| Total energy [hartree]                                      -41.2660474009
 OPT| Internal pressure [bar]                                    1843.6908845232
 OPT| Effective energy change [hartree]                            -0.0001795244
 OPT| Predicted energy change [hartree]                            -0.0001860055
 OPT| Scaling factor                                                0.0000000000
 OPT| Step size                                                     0.0036421964
 OPT| Trust radius                                                  0.4724315332
 OPT| Decrease in energy                                                     YES
 OPT| Used time [s]                                                        0.348
 OPT|
 OPT| Maximum step size                                             0.0036421964
 OPT| Convergence limit for maximum step size                       0.0030000000
 OPT| Maximum step size is converged                                          NO
 OPT|
 OPT| RMS step size                                                 0.0025868402
 OPT| Convergence limit for RMS step size                           0.0015000000
 OPT| RMS step size is converged                                              NO
 OPT|
 OPT| Maximum gradient                                              0.0007075764
 OPT| Convergence limit for maximum gradient                        0.0004500000
 OPT| Maximum gradient is converged                                           NO
 OPT|
 OPT| RMS gradient                                                  0.0002679429
 OPT| Convergence limit for RMS gradient                            0.0003000000
 OPT| RMS gradient is converged                                              YES
 OPT|
 OPT| Pressure deviation [bar]                                   1843.6908845232
 OPT| Pressure tolerance [bar]                                    100.0000000000
 OPT| Pressure is converged                                                   NO
 OPT| **************************************************************************
 OPT| Estimated peak process memory after this step [MiB]                    162

 --------------------------
 OPTIMIZATION STEP:      3
 --------------------------

 CELL| Volume [angstrom^3]:                                           177.519346
 CELL| Vector a [angstrom]:       5.620     0.000     0.000   |a| =     5.620157
 CELL| Vector b [angstrom]:      -0.000     5.620     0.000   |b| =     5.620158
 CELL| Vector c [angstrom]:       0.000    -0.000     5.620   |c| =     5.620160
 CELL| Angle (b,c), alpha [degree]:                                    90.000000
 CELL| Angle (a,c), beta  [degree]:                                    90.000000
 CELL| Angle (a,b), gamma [degree]:                                    90.000000
 CELL| Numerically orthorhombic:                                              NO
 CELL| Periodicity                                                           XYZ

 Extrapolation method: ASPC

 Number of electrons:                                                         64
 Number of occupied orbitals:                                                 32
 Number of molecular orbitals:                                                48

 Number of orbital functions:                                                 48
 Number of independent orbital functions:                                     48


 SCF WAVEFUNCTION OPTIMIZATION

  Step     Update method      Time    Convergence         Total energy    Change
  ------------------------------------------------------------------------------
     1 TBLite/Diag 0.40E+00    0.0     0.00044341       -41.2660498434 -4.13E+01
     2 TBLite/Diag 0.40E+00    0.0     0.00015100       -41.2660499033 -5.99E-08
     3 TBLite/Diag 0.40E+00    0.0     0.00002206       -41.2660499055 -2.18E-09
     4 TBLite/Diag 0.40E+00    0.0     0.00000434       -41.2660499055 -2.57E-11
     5 TBLite/Diag 0.40E+00    0.0     0.00000164       -41.2660499056 -2.42E-11
     6 TBLite/Diag 0.40E+00    0.0     0.00000030       -41.2660499056 -4.48E-13
     7 TBLite/Diag 0.40E+00    0.0     0.00000005       -41.2660499056 -7.11E-15
     8 TBLite/Diag 0.40E+00    0.0     5.6258E-09       -41.2660499056  1.42E-14
     9 TBLite/Diag 0.40E+00    0.0     4.8190E-09       -41.2660499056 -2.84E-14
    10 TBLite/Diag 0.40E+00    0.0     6.8659E-10       -41.2660499056  3.55E-14

  *** SCF run converged in    10 steps ***


  Core Hamiltonian energy:                                    -41.86963444859035
  Repulsive potential energy:                                   0.48747076730308
  Electrostatic energy:                                         0.14499550389788
  Self-consistent dispersion energy:                           -0.03371431354576
  Non-self consistent dispersion energy:                        0.00483258538439
  Correction for halogen bonding:                               0.00000000000000
  Electronic entropic energy:                                  -0.00000000000000
  Fermi energy:                                                -0.26001151163772

  Total energy:                                               -41.26604990555076
  Total energy (extrapolated to T->0):                        -41.26604990555076

 ENERGY| Total FORCE_EVAL ( QS ) energy [hartree]            -41.266049905550759

 OPT| **************************************************************************
 OPT| Step number                                                              3
 OPT| Optimization method                                                   BFGS
 OPT| Total energy [hartree]                                      -41.2660499056
 OPT| Internal pressure [bar]                                    2140.8301243911
 OPT| Effective energy change [hartree]                            -0.0000025047
 OPT| Predicted energy change [hartree]                            -0.0000013804
 OPT| Scaling factor                                                0.0000000000
 OPT| Step size                                                     0.0007465411
 OPT| Trust radius                                                  0.4724315332
 OPT| Decrease in energy                                                     YES
 OPT| Used time [s]                                                        0.349
 OPT|
 OPT| Maximum step size                                             0.0007465411
 OPT| Convergence limit for maximum step size                       0.0030000000
 OPT| Maximum step size is converged                                         YES
 OPT|
 OPT| RMS step size                                                 0.0002482648
 OPT| Convergence limit for RMS step size                           0.0015000000
 OPT| RMS step size is converged                                             YES
 OPT|
 OPT| Maximum gradient                                              0.0008215948
 OPT| Convergence limit for maximum gradient                        0.0004500000
 OPT| Maximum gradient is converged                                           NO
 OPT|
 OPT| RMS gradient                                                  0.0002533280
 OPT| Convergence limit for RMS gradient                            0.0003000000
 OPT| RMS gradient is converged                                              YES
 OPT|
 OPT| Pressure deviation [bar]                                   2140.8301243911
 OPT| Pressure tolerance [bar]                                    100.0000000000
 OPT| Pressure is converged                                                   NO
 OPT| **************************************************************************
 OPT| Estimated peak process memory after this step [MiB]                    162

 --------------------------
 OPTIMIZATION STEP:      4
 --------------------------

 CELL| Volume [angstrom^3]:                                           178.092237
 CELL| Vector a [angstrom]:       5.626     0.000     0.000   |a| =     5.626190
 CELL| Vector b [angstrom]:       0.000     5.626     0.000   |b| =     5.626198
 CELL| Vector c [angstrom]:      -0.000    -0.000     5.626   |c| =     5.626205
 CELL| Angle (b,c), alpha [degree]:                                    90.000002
 CELL| Angle (a,c), beta  [degree]:                                    90.000000
 CELL| Angle (a,b), gamma [degree]:                                    90.000000
 CELL| Numerically orthorhombic:                                              NO
 CELL| Periodicity                                                           XYZ

 Extrapolation method: ASPC

 Number of electrons:                                                         64
 Number of occupied orbitals:                                                 32
 Number of molecular orbitals:                                                48

 Number of orbital functions:                                                 48
 Number of independent orbital functions:                                     48


 SCF WAVEFUNCTION OPTIMIZATION

  Step     Update method      Time    Convergence         Total energy    Change
  ------------------------------------------------------------------------------
     1 TBLite/Diag 0.40E+00    0.0     0.00187302       -41.2660714650 -4.13E+01
     2 TBLite/Diag 0.40E+00    0.0     0.00035146       -41.2660723397 -8.75E-07
     3 TBLite/Diag 0.40E+00    0.0     0.00011868       -41.2660724260 -8.63E-08
     4 TBLite/Diag 0.40E+00    0.0     0.00010503       -41.2660724537 -2.77E-08
     5 TBLite/Diag 0.40E+00    0.0     0.00002299       -41.2660724547 -9.56E-10
     6 TBLite/Diag 0.40E+00    0.0     0.00000386       -41.2660724547 -6.05E-11
     7 TBLite/Diag 0.40E+00    0.0     0.00000249       -41.2660724547 -7.25E-12
     8 TBLite/Diag 0.40E+00    0.0     0.00000004       -41.2660724547  3.55E-14
     9 TBLite/Diag 0.40E+00    0.0     0.00000002       -41.2660724547 -1.42E-14
    10 TBLite/Diag 0.40E+00    0.0     6.8032E-09       -41.2660724547 -7.11E-15
    11 TBLite/Diag 0.40E+00    0.0     2.1396E-09       -41.2660724547  7.11E-15
    12 TBLite/Diag 0.40E+00    0.0     7.0040E-12       -41.2660724547  2.13E-14

  *** SCF run converged in    12 steps ***


  Core Hamiltonian energy:                                    -41.87297569344092
  Repulsive potential energy:                                   0.49069532140461
  Electrostatic energy:                                         0.14500540331452
  Self-consistent dispersion energy:                           -0.03359977669052
  Non-self consistent dispersion energy:                        0.00480229066820
  Correction for halogen bonding:                               0.00000000000000
  Electronic entropic energy:                                  -0.00000000000000
  Fermi energy:                                                -0.25920405956788

  Total energy:                                               -41.26607245474410
  Total energy (extrapolated to T->0):                        -41.26607245474410

 ENERGY| Total FORCE_EVAL ( QS ) energy [hartree]            -41.266072454744105

 OPT| **************************************************************************
 OPT| Step number                                                              4
 OPT| Optimization method                                                   BFGS
 OPT| Total energy [hartree]                                      -41.2660724547
 OPT| Internal pressure [bar]                                    4892.5891128950
 OPT| Effective energy change [hartree]                            -0.0000225492
 OPT| Predicted energy change [hartree]                            -0.0000176278
 OPT| Scaling factor                                                0.0000000000
 OPT| Step size                                                     0.0114246398
 OPT| Trust radius                                                  0.4724315332
 OPT| Decrease in energy                                                     YES
 OPT| Used time [s]                                                        0.347
 OPT|
 OPT| Maximum step size                                             0.0114246398
 OPT| Convergence limit for maximum step size                       0.0030000000
 OPT| Maximum step size is converged                                          NO
 OPT|
 OPT| RMS step size                                                 0.0035097018
 OPT| Convergence limit for RMS step size                           0.0015000000
 OPT| RMS step size is converged                                              NO
 OPT|
 OPT| Maximum gradient                                              0.0018808405
 OPT| Convergence limit for maximum gradient                        0.0004500000
 OPT| Maximum gradient is converged                                           NO
 OPT|
 OPT| RMS gradient                                                  0.0009765983
 OPT| Convergence limit for RMS gradient                            0.0003000000
 OPT| RMS gradient is converged                                               NO
 OPT|
 OPT| Pressure deviation [bar]                                   4892.5891128950
 OPT| Pressure tolerance [bar]                                    100.0000000000
 OPT| Pressure is converged                                                   NO
 OPT| **************************************************************************
 OPT| Estimated peak process memory after this step [MiB]                    162

 --------------------------
 OPTIMIZATION STEP:      5
 --------------------------

 CELL| Volume [angstrom^3]:                                           179.049867
 CELL| Vector a [angstrom]:       5.636     0.000     0.000   |a| =     5.636247
 CELL| Vector b [angstrom]:      -0.000     5.636     0.000   |b| =     5.636264
 CELL| Vector c [angstrom]:      -0.000    -0.000     5.636   |c| =     5.636282
 CELL| Angle (b,c), alpha [degree]:                                    90.000004
 CELL| Angle (a,c), beta  [degree]:                                    90.000001
 CELL| Angle (a,b), gamma [degree]:                                    90.000000
 CELL| Numerically orthorhombic:                                              NO
 CELL| Periodicity                                                           XYZ

 Extrapolation method: ASPC

 Number of electrons:                                                         64
 Number of occupied orbitals:                                                 32
 Number of molecular orbitals:                                                48

 Number of orbital functions:                                                 48
 Number of independent orbital functions:                                     48


 SCF WAVEFUNCTION OPTIMIZATION

  Step     Update method      Time    Convergence         Total energy    Change
  ------------------------------------------------------------------------------
     1 TBLite/Diag 0.40E+00    0.0     0.00247703       -41.2661031060 -4.13E+01
     2 TBLite/Diag 0.40E+00    0.0     0.00115910       -41.2661068490 -3.74E-06
     3 TBLite/Diag 0.40E+00    0.0     0.00016343       -41.2661070005 -1.52E-07
     4 TBLite/Diag 0.40E+00    0.0     0.00003600       -41.2661070021 -1.55E-09
     5 TBLite/Diag 0.40E+00    0.0     0.00001404       -41.2661070043 -2.15E-09
     6 TBLite/Diag 0.40E+00    0.0     0.00000614       -41.2661070043 -5.52E-11
     7 TBLite/Diag 0.40E+00    0.0     0.00000057       -41.2661070043 -9.09E-13
     8 TBLite/Diag 0.40E+00    0.0     0.00000047       -41.2661070043 -2.56E-13
     9 TBLite/Diag 0.40E+00    0.0     0.00000002       -41.2661070043  0.00E+00
    10 TBLite/Diag 0.40E+00    0.0     9.7012E-09       -41.2661070043 -2.13E-14
    11 TBLite/Diag 0.40E+00    0.0     2.1055E-09       -41.2661070043  2.13E-14
    12 TBLite/Diag 0.40E+00    0.0     4.8909E-10       -41.2661070043  7.11E-15

  *** SCF run converged in    12 steps ***


  Core Hamiltonian energy:                                    -41.87445040179720
  Repulsive potential energy:                                   0.49190120560338
  Electrostatic energy:                                         0.14509885362363
  Self-consistent dispersion energy:                           -0.03340918624490
  Non-self consistent dispersion energy:                        0.00475252450701
  Correction for halogen bonding:                               0.00000000000000
  Electronic entropic energy:                                  -0.00000000000000
  Fermi energy:                                                -0.25884756292497

  Total energy:                                               -41.26610700430807
  Total energy (extrapolated to T->0):                        -41.26610700430807

 ENERGY| Total FORCE_EVAL ( QS ) energy [hartree]            -41.266107004308068

 OPT| **************************************************************************
 OPT| Step number                                                              5
 OPT| Optimization method                                                   BFGS
 OPT| Total energy [hartree]                                      -41.2661070043
 OPT| Internal pressure [bar]                                    5861.8122407944
 OPT| Effective energy change [hartree]                            -0.0000345496
 OPT| Predicted energy change [hartree]                            -0.0000235188
 OPT| Scaling factor                                                0.0000000000
 OPT| Step size                                                     0.0190418340
 OPT| Trust radius                                                  0.4724315332
 OPT| Decrease in energy                                                     YES
 OPT| Used time [s]                                                        0.350
 OPT|
 OPT| Maximum step size                                             0.0190418340
 OPT| Convergence limit for maximum step size                       0.0030000000
 OPT| Maximum step size is converged                                          NO
 OPT|
 OPT| RMS step size                                                 0.0054650220
 OPT| Convergence limit for RMS step size                           0.0015000000
 OPT| RMS step size is converged                                              NO
 OPT|
 OPT| Maximum gradient                                              0.0024180985
 OPT| Convergence limit for maximum gradient                        0.0004500000
 OPT| Maximum gradient is converged                                           NO
 OPT|
 OPT| RMS gradient                                                  0.0015076037
 OPT| Convergence limit for RMS gradient                            0.0003000000
 OPT| RMS gradient is converged                                               NO
 OPT|
 OPT| Pressure deviation [bar]                                   5861.8122407944
 OPT| Pressure tolerance [bar]                                    100.0000000000
 OPT| Pressure is converged                                                   NO
 OPT| **************************************************************************
 OPT| Estimated peak process memory after this step [MiB]                    162

 --------------------------
 OPTIMIZATION STEP:      6
 --------------------------

 CELL| Volume [angstrom^3]:                                           181.768244
 CELL| Vector a [angstrom]:       5.665     0.000     0.000   |a| =     5.664599
 CELL| Vector b [angstrom]:       0.000     5.665     0.000   |b| =     5.664644
 CELL| Vector c [angstrom]:      -0.000    -0.000     5.665   |c| =     5.664691
 CELL| Angle (b,c), alpha [degree]:                                    90.000009
 CELL| Angle (a,c), beta  [degree]:                                    90.000006
 CELL| Angle (a,b), gamma [degree]:                                    89.999999
 CELL| Numerically orthorhombic:                                              NO
 CELL| Periodicity                                                           XYZ

 Extrapolation method: ASPC

 Number of electrons:                                                         64
 Number of occupied orbitals:                                                 32
 Number of molecular orbitals:                                                48

 Number of orbital functions:                                                 48
 Number of independent orbital functions:                                     48


 SCF WAVEFUNCTION OPTIMIZATION

  Step     Update method      Time    Convergence         Total energy    Change
  ------------------------------------------------------------------------------
     1 TBLite/Diag 0.40E+00    0.0     0.00332799       -41.2661927437 -4.13E+01
     2 TBLite/Diag 0.40E+00    0.0     0.00155599       -41.2662004410 -7.70E-06
     3 TBLite/Diag 0.40E+00    0.0     0.00024928       -41.2662009310 -4.90E-07
     4 TBLite/Diag 0.40E+00    0.0     0.00006793       -41.2662009411 -1.00E-08
     5 TBLite/Diag 0.40E+00    0.0     0.00002634       -41.2662009449 -3.87E-09
     6 TBLite/Diag 0.40E+00    0.0     0.00001370       -41.2662009452 -2.99E-10
     7 TBLite/Diag 0.40E+00    0.0     0.00000081       -41.2662009452 -2.00E-12
     8 TBLite/Diag 0.40E+00    0.0     0.00000054       -41.2662009452 -5.54E-13
     9 TBLite/Diag 0.40E+00    0.0     0.00000004       -41.2662009452  0.00E+00
    10 TBLite/Diag 0.40E+00    0.0     0.00000001       -41.2662009452 -2.13E-14
    11 TBLite/Diag 0.40E+00    0.0     3.3632E-09       -41.2662009452  2.13E-14
    12 TBLite/Diag 0.40E+00    0.0     6.6251E-10       -41.2662009452 -1.42E-14

  *** SCF run converged in    12 steps ***


  Core Hamiltonian energy:                                    -41.87641060656158
  Repulsive potential energy:                                   0.49307606597991
  Electrostatic energy:                                         0.14539421220758
  Self-consistent dispersion energy:                           -0.03287691448545
  Non-self consistent dispersion energy:                        0.00461629763542
  Correction for halogen bonding:                               0.00000000000000
  Electronic entropic energy:                                  -0.00000000000000
  Fermi energy:                                                -0.25838017049036

  Total energy:                                               -41.26620094522412
  Total energy (extrapolated to T->0):                        -41.26620094522412

 ENERGY| Total FORCE_EVAL ( QS ) energy [hartree]            -41.266200945224121

 OPT| **************************************************************************
 OPT| Step number                                                              6
 OPT| Optimization method                                                   BFGS
 OPT| Total energy [hartree]                                      -41.2662009452
 OPT| Internal pressure [bar]                                    6532.4787840019
 OPT| Effective energy change [hartree]                            -0.0000939409
 OPT| Predicted energy change [hartree]                            -0.0000584390
 OPT| Scaling factor                                                0.0000000000
 OPT| Step size                                                     0.0536848857
 OPT| Trust radius                                                  0.4724315332
 OPT| Decrease in energy                                                     YES
 OPT| Used time [s]                                                        0.336
 OPT|
 OPT| Maximum step size                                             0.0536848857
 OPT| Convergence limit for maximum step size                       0.0030000000
 OPT| Maximum step size is converged                                          NO
 OPT|
 OPT| RMS step size                                                 0.0151970354
 OPT| Convergence limit for RMS step size                           0.0015000000
 OPT| RMS step size is converged                                              NO
 OPT|
 OPT| Maximum gradient                                              0.0039152435
 OPT| Convergence limit for maximum gradient                        0.0004500000
 OPT| Maximum gradient is converged                                           NO
 OPT|
 OPT| RMS gradient                                                  0.0022798563
 OPT| Convergence limit for RMS gradient                            0.0003000000
 OPT| RMS gradient is converged                                               NO
 OPT|
 OPT| Pressure deviation [bar]                                   6532.4787840019
 OPT| Pressure tolerance [bar]                                    100.0000000000
 OPT| Pressure is converged                                                   NO
 OPT| **************************************************************************
 OPT| Estimated peak process memory after this step [MiB]                    162

 --------------------------
 OPTIMIZATION STEP:      7
 --------------------------

 CELL| Volume [angstrom^3]:                                           187.608634
 CELL| Vector a [angstrom]:       5.725     0.000     0.000   |a| =     5.724567
 CELL| Vector b [angstrom]:       0.000     5.725     0.000   |b| =     5.724681
 CELL| Vector c [angstrom]:       0.000    -0.000     5.725   |c| =     5.724782
 CELL| Angle (b,c), alpha [degree]:                                    90.000019
 CELL| Angle (a,c), beta  [degree]:                                    89.999995
 CELL| Angle (a,b), gamma [degree]:                                    89.999996
 CELL| Numerically orthorhombic:                                              NO
 CELL| Periodicity                                                           XYZ

 Extrapolation method: ASPC

 Number of electrons:                                                         64
 Number of occupied orbitals:                                                 32
 Number of molecular orbitals:                                                48

 Number of orbital functions:                                                 48
 Number of independent orbital functions:                                     48


 SCF WAVEFUNCTION OPTIMIZATION

  Step     Update method      Time    Convergence         Total energy    Change
  ------------------------------------------------------------------------------
     1 TBLite/Diag 0.40E+00    0.0     0.00582417       -41.2662921625 -4.13E+01
     2 TBLite/Diag 0.40E+00    0.0     0.00147523       -41.2663055138 -1.34E-05
     3 TBLite/Diag 0.40E+00    0.0     0.00030874       -41.2663065995 -1.09E-06
     4 TBLite/Diag 0.40E+00    0.0     0.00005203       -41.2663066062 -6.71E-09
     5 TBLite/Diag 0.40E+00    0.0     0.00001871       -41.2663066075 -1.21E-09
     6 TBLite/Diag 0.40E+00    0.0     0.00000641       -41.2663066075 -7.19E-11
     7 TBLite/Diag 0.40E+00    0.0     0.00000069       -41.2663066075 -1.85E-12
     8 TBLite/Diag 0.40E+00    0.0     0.00000074       -41.2663066075 -7.46E-13
     9 TBLite/Diag 0.40E+00    0.0     0.00000003       -41.2663066075 -2.84E-14
    10 TBLite/Diag 0.40E+00    0.0     0.00000002       -41.2663066075  1.42E-14
    11 TBLite/Diag 0.40E+00    0.0     5.8099E-09       -41.2663066075  7.11E-15
    12 TBLite/Diag 0.40E+00    0.0     8.2025E-10       -41.2663066075  1.42E-14

  *** SCF run converged in    12 steps ***


  Core Hamiltonian energy:                                    -41.87700613436596
  Repulsive potential energy:                                   0.49211948530572
  Electrostatic energy:                                         0.14601788759098
  Self-consistent dispersion energy:                           -0.03177751589122
  Non-self consistent dispersion energy:                        0.00433966983551
  Correction for halogen bonding:                               0.00000000000000
  Electronic entropic energy:                                  -0.00000000000000
  Fermi energy:                                                -0.25824959119876

  Total energy:                                               -41.26630660752497
  Total energy (extrapolated to T->0):                        -41.26630660752497

 ENERGY| Total FORCE_EVAL ( QS ) energy [hartree]            -41.266306607524974

 OPT| **************************************************************************
 OPT| Step number                                                              7
 OPT| Optimization method                                                   BFGS
 OPT| Total energy [hartree]                                      -41.2663066075
 OPT| Internal pressure [bar]                                    4324.7562578752
 OPT| Effective energy change [hartree]                            -0.0001056623
 OPT| Predicted energy change [hartree]                            -0.0001168967
 OPT| Scaling factor                                                0.0000000000
 OPT| Step size                                                     0.1135557349
 OPT| Trust radius                                                  0.4724315332
 OPT| Decrease in energy                                                     YES
 OPT| Used time [s]                                                        0.325
 OPT|
 OPT| Maximum step size                                             0.1135557349
 OPT| Convergence limit for maximum step size                       0.0030000000
 OPT| Maximum step size is converged                                          NO
 OPT|
 OPT| RMS step size                                                 0.0318454835
 OPT| Convergence limit for RMS step size                           0.0015000000
 OPT| RMS step size is converged                                              NO
 OPT|
 OPT| Maximum gradient                                              0.0050632098
 OPT| Convergence limit for maximum gradient                        0.0004500000
 OPT| Maximum gradient is converged                                           NO
 OPT|
 OPT| RMS gradient                                                  0.0024452788
 OPT| Convergence limit for RMS gradient                            0.0003000000
 OPT| RMS gradient is converged                                               NO
 OPT|
 OPT| Pressure deviation [bar]                                   4324.7562578752
 OPT| Pressure tolerance [bar]                                    100.0000000000
 OPT| Pressure is converged                                                   NO
 OPT| **************************************************************************
 OPT| Estimated peak process memory after this step [MiB]                    162

 --------------------------
 OPTIMIZATION STEP:      8
 --------------------------

 CELL| Volume [angstrom^3]:                                           187.316323
 CELL| Vector a [angstrom]:       5.722     0.000     0.000   |a| =     5.721592
 CELL| Vector b [angstrom]:      -0.000     5.722     0.000   |b| =     5.721711
 CELL| Vector c [angstrom]:       0.000     0.000     5.722   |c| =     5.721802
 CELL| Angle (b,c), alpha [degree]:                                    90.000000
 CELL| Angle (a,c), beta  [degree]:                                    89.999948
 CELL| Angle (a,b), gamma [degree]:                                    90.000011
 CELL| Numerically orthorhombic:                                              NO
 CELL| Periodicity                                                           XYZ

 Extrapolation method: ASPC

 Number of electrons:                                                         64
 Number of occupied orbitals:                                                 32
 Number of molecular orbitals:                                                48

 Number of orbital functions:                                                 48
 Number of independent orbital functions:                                     48


 SCF WAVEFUNCTION OPTIMIZATION

  Step     Update method      Time    Convergence         Total energy    Change
  ------------------------------------------------------------------------------
     1 TBLite/Diag 0.40E+00    0.0     0.00541569       -41.2663497098 -4.13E+01
     2 TBLite/Diag 0.40E+00    0.0     0.00188866       -41.2663575520 -7.84E-06
     3 TBLite/Diag 0.40E+00    0.0     0.00025917       -41.2663578038 -2.52E-07
     4 TBLite/Diag 0.40E+00    0.0     0.00006925       -41.2663578124 -8.52E-09
     5 TBLite/Diag 0.40E+00    0.0     0.00001543       -41.2663578140 -1.67E-09
     6 TBLite/Diag 0.40E+00    0.0     0.00000850       -41.2663578142 -1.70E-10
     7 TBLite/Diag 0.40E+00    0.0     0.00000124       -41.2663578142 -7.74E-12
     8 TBLite/Diag 0.40E+00    0.0     0.00000137       -41.2663578142 -2.35E-12
     9 TBLite/Diag 0.40E+00    0.0     0.00000004       -41.2663578142 -7.11E-15
    10 TBLite/Diag 0.40E+00    0.0     0.00000002       -41.2663578142  7.11E-15
    11 TBLite/Diag 0.40E+00    0.0     7.3664E-09       -41.2663578142 -1.42E-14
    12 TBLite/Diag 0.40E+00    0.0     2.0567E-09       -41.2663578142  7.11E-15
    13 TBLite/Diag 0.40E+00    0.0     1.0836E-10       -41.2663578142  1.42E-14

  *** SCF run converged in    13 steps ***


  Core Hamiltonian energy:                                    -41.87356297545710
  Repulsive potential energy:                                   0.48862855591192
  Electrostatic energy:                                         0.14605500921275
  Self-consistent dispersion energy:                           -0.03183100703918
  Non-self consistent dispersion energy:                        0.00435260316901
  Correction for halogen bonding:                               0.00000000000000
  Electronic entropic energy:                                  -0.00000000000000
  Fermi energy:                                                -0.25908884991124

  Total energy:                                               -41.26635781420259
  Total energy (extrapolated to T->0):                        -41.26635781420259

 ENERGY| Total FORCE_EVAL ( QS ) energy [hartree]            -41.266357814202593

 OPT| **************************************************************************
 OPT| Step number                                                              8
 OPT| Optimization method                                                   BFGS
 OPT| Total energy [hartree]                                      -41.2663578142
 OPT| Internal pressure [bar]                                    1581.9047643486
 OPT| Effective energy change [hartree]                            -0.0000512067
 OPT| Predicted energy change [hartree]                            -0.0000404903
 OPT| Scaling factor                                                0.0000000000
 OPT| Step size                                                     0.0056300523
 OPT| Trust radius                                                  0.4724315332
 OPT| Decrease in energy                                                     YES
 OPT| Used time [s]                                                        0.328
 OPT|
 OPT| Maximum step size                                             0.0056300523
 OPT| Convergence limit for maximum step size                       0.0030000000
 OPT| Maximum step size is converged                                          NO
 OPT|
 OPT| RMS step size                                                 0.0020583576
 OPT| Convergence limit for RMS step size                           0.0015000000
 OPT| RMS step size is converged                                              NO
 OPT|
 OPT| Maximum gradient                                              0.0037361838
 OPT| Convergence limit for maximum gradient                        0.0004500000
 OPT| Maximum gradient is converged                                           NO
 OPT|
 OPT| RMS gradient                                                  0.0014905392
 OPT| Convergence limit for RMS gradient                            0.0003000000
 OPT| RMS gradient is converged                                               NO
 OPT|
 OPT| Pressure deviation [bar]                                   1581.9047643486
 OPT| Pressure tolerance [bar]                                    100.0000000000
 OPT| Pressure is converged                                                   NO
 OPT| **************************************************************************
 OPT| Estimated peak process memory after this step [MiB]                    162

 --------------------------
 OPTIMIZATION STEP:      9
 --------------------------

 CELL| Volume [angstrom^3]:                                           186.450802
 CELL| Vector a [angstrom]:       5.713     0.000     0.000   |a| =     5.712767
 CELL| Vector b [angstrom]:      -0.000     5.713     0.000   |b| =     5.712890
 CELL| Vector c [angstrom]:       0.000     0.000     5.713   |c| =     5.712969
 CELL| Angle (b,c), alpha [degree]:                                    89.999992
 CELL| Angle (a,c), beta  [degree]:                                    89.999832
 CELL| Angle (a,b), gamma [degree]:                                    90.000012
 CELL| Numerically orthorhombic:                                              NO
 CELL| Periodicity                                                           XYZ

 Extrapolation method: ASPC

 Number of electrons:                                                         64
 Number of occupied orbitals:                                                 32
 Number of molecular orbitals:                                                48

 Number of orbital functions:                                                 48
 Number of independent orbital functions:                                     48


 SCF WAVEFUNCTION OPTIMIZATION

  Step     Update method      Time    Convergence         Total energy    Change
  ------------------------------------------------------------------------------
     1 TBLite/Diag 0.40E+00    0.0     0.00820296       -41.2663302239 -4.13E+01
     2 TBLite/Diag 0.40E+00    0.0     0.00321270       -41.2663559896 -2.58E-05
     3 TBLite/Diag 0.40E+00    0.0     0.00043645       -41.2663568219 -8.32E-07
     4 TBLite/Diag 0.40E+00    0.0     0.00010336       -41.2663568435 -2.17E-08
     5 TBLite/Diag 0.40E+00    0.0     0.00002428       -41.2663568487 -5.15E-09
     6 TBLite/Diag 0.40E+00    0.0     0.00001255       -41.2663568491 -3.95E-10
     7 TBLite/Diag 0.40E+00    0.0     0.00000305       -41.2663568491 -3.40E-11
     8 TBLite/Diag 0.40E+00    0.0     0.00000211       -41.2663568491 -5.48E-12
     9 TBLite/Diag 0.40E+00    0.0     0.00000006       -41.2663568491  0.00E+00
    10 TBLite/Diag 0.40E+00    0.0     0.00000002       -41.2663568491 -2.84E-14
    11 TBLite/Diag 0.40E+00    0.0     0.00000001       -41.2663568491  2.84E-14
    12 TBLite/Diag 0.40E+00    0.0     2.0759E-09       -41.2663568491 -2.84E-14
    13 TBLite/Diag 0.40E+00    0.0     4.3703E-11       -41.2663568491  2.84E-14

  *** SCF run converged in    13 steps ***


  Core Hamiltonian energy:                                    -41.86893408612683
  Repulsive potential energy:                                   0.48411817397391
  Electrostatic energy:                                         0.14605838528240
  Self-consistent dispersion energy:                           -0.03199052611198
  Non-self consistent dispersion energy:                        0.00439120387673
  Correction for halogen bonding:                               0.00000000000000
  Electronic entropic energy:                                  -0.00000000000000
  Fermi energy:                                                -0.26020870192543

  Total energy:                                               -41.26635684910576
  Total energy (extrapolated to T->0):                        -41.26635684910576

 ENERGY| Total FORCE_EVAL ( QS ) energy [hartree]            -41.266356849105762

 OPT| **************************************************************************
 OPT| Step number                                                              9
 OPT| Optimization method                                                   BFGS
 OPT| Total energy [hartree]                                      -41.2663568491
 OPT| Internal pressure [bar]                                   -1858.4397697943
 OPT| Effective energy change [hartree]                             0.0000009651
 OPT| Predicted energy change [hartree]                            -0.0000417624
 OPT| Scaling factor                                                0.0000000000
 OPT| Step size                                                     0.0166933718
 OPT| Trust radius                                                  0.4724315332
 OPT| Decrease in energy                                                      NO
 OPT| Used time [s]                                                        0.326
 OPT|
 OPT| Maximum step size                                             0.0166933718
 OPT| Convergence limit for maximum step size                       0.0030000000
 OPT| Maximum step size is converged                                          NO
 OPT|
 OPT| RMS step size                                                 0.0052561522
 OPT| Convergence limit for RMS step size                           0.0015000000
 OPT| RMS step size is converged                                              NO
 OPT|
 OPT| Maximum gradient                                              0.0039043581
 OPT| Convergence limit for maximum gradient                        0.0004500000
 OPT| Maximum gradient is converged                                           NO
 OPT|
 OPT| RMS gradient                                                  0.0017843442
 OPT| Convergence limit for RMS gradient                            0.0003000000
 OPT| RMS gradient is converged                                               NO
 OPT|
 OPT| Pressure deviation [bar]                                  -1858.4397697943
 OPT| Pressure tolerance [bar]                                    100.0000000000
 OPT| Pressure is converged                                                   NO
 OPT| **************************************************************************
 OPT| Estimated peak process memory after this step [MiB]                    162

 --------------------------
 OPTIMIZATION STEP:     10
 --------------------------

 CELL| Volume [angstrom^3]:                                           187.196328
 CELL| Vector a [angstrom]:       5.720     0.000     0.000   |a| =     5.720364
 CELL| Vector b [angstrom]:      -0.000     5.720     0.000   |b| =     5.720493
 CELL| Vector c [angstrom]:       0.000    -0.000     5.721   |c| =     5.720581
 CELL| Angle (b,c), alpha [degree]:                                    90.000003
 CELL| Angle (a,c), beta  [degree]:                                    89.999843
 CELL| Angle (a,b), gamma [degree]:                                    90.000003
 CELL| Numerically orthorhombic:                                              NO
 CELL| Periodicity                                                           XYZ

 Extrapolation method: ASPC

 Number of electrons:                                                         64
 Number of occupied orbitals:                                                 32
 Number of molecular orbitals:                                                48

 Number of orbital functions:                                                 48
 Number of independent orbital functions:                                     48


 SCF WAVEFUNCTION OPTIMIZATION

  Step     Update method      Time    Convergence         Total energy    Change
  ------------------------------------------------------------------------------
     1 TBLite/Diag 0.40E+00    0.0     0.00400590       -41.2663784103 -4.13E+01
     2 TBLite/Diag 0.40E+00    0.0     0.00161370       -41.2663857628 -7.35E-06
     3 TBLite/Diag 0.40E+00    0.0     0.00022700       -41.2663860041 -2.41E-07
     4 TBLite/Diag 0.40E+00    0.0     0.00005499       -41.2663860104 -6.31E-09
     5 TBLite/Diag 0.40E+00    0.0     0.00001460       -41.2663860125 -2.09E-09
     6 TBLite/Diag 0.40E+00    0.0     0.00000727       -41.2663860126 -1.23E-10
     7 TBLite/Diag 0.40E+00    0.0     0.00000192       -41.2663860126 -1.07E-11
     8 TBLite/Diag 0.40E+00    0.0     0.00000102       -41.2663860126 -1.25E-12
     9 TBLite/Diag 0.40E+00    0.0     0.00000002       -41.2663860126 -7.11E-15
    10 TBLite/Diag 0.40E+00    0.0     8.7271E-09       -41.2663860126  0.00E+00
    11 TBLite/Diag 0.40E+00    0.0     3.5869E-09       -41.2663860126 -7.11E-15
    12 TBLite/Diag 0.40E+00    0.0     6.6950E-10       -41.2663860126 -7.11E-15

  *** SCF run converged in    12 steps ***


  Core Hamiltonian energy:                                    -41.87131370191074
  Repulsive potential energy:                                   0.48633649183869
  Electrostatic energy:                                         0.14608624616463
  Self-consistent dispersion energy:                           -0.03185299897431
  Non-self consistent dispersion energy:                        0.00435795026085
  Correction for halogen bonding:                               0.00000000000000
  Electronic entropic energy:                                  -0.00000000000000
  Fermi energy:                                                -0.25963472968062

  Total energy:                                               -41.26638601262088
  Total energy (extrapolated to T->0):                        -41.26638601262088

 ENERGY| Total FORCE_EVAL ( QS ) energy [hartree]            -41.266386012620877

 OPT| **************************************************************************
 OPT| Step number                                                             10
 OPT| Optimization method                                                   BFGS
 OPT| Total energy [hartree]                                      -41.2663860126
 OPT| Internal pressure [bar]                                    -253.6818505228
 OPT| Effective energy change [hartree]                            -0.0000291635
 OPT| Predicted energy change [hartree]                            -0.0000255752
 OPT| Scaling factor                                                0.0000000000
 OPT| Step size                                                     0.0143853156
 OPT| Trust radius                                                  0.4724315332
 OPT| Decrease in energy                                                     YES
 OPT| Used time [s]                                                        0.325
 OPT|
 OPT| Maximum step size                                             0.0143853156
 OPT| Convergence limit for maximum step size                       0.0030000000
 OPT| Maximum step size is converged                                          NO
 OPT|
 OPT| RMS step size                                                 0.0042391004
 OPT| Convergence limit for RMS step size                           0.0015000000
 OPT| RMS step size is converged                                              NO
 OPT|
 OPT| Maximum gradient                                              0.0007074840
 OPT| Convergence limit for maximum gradient                        0.0004500000
 OPT| Maximum gradient is converged                                           NO
 OPT|
 OPT| RMS gradient                                                  0.0003240985
 OPT| Convergence limit for RMS gradient                            0.0003000000
 OPT| RMS gradient is converged                                               NO
 OPT|
 OPT| Pressure deviation [bar]                                   -253.6818505228
 OPT| Pressure tolerance [bar]                                    100.0000000000
 OPT| Pressure is converged                                                   NO
 OPT| **************************************************************************
 OPT| Estimated peak process memory after this step [MiB]                    162

 --------------------------
 OPTIMIZATION STEP:     11
 --------------------------

 CELL| Volume [angstrom^3]:                                           187.304293
 CELL| Vector a [angstrom]:       5.721     0.000     0.000   |a| =     5.721462
 CELL| Vector b [angstrom]:      -0.000     5.722     0.000   |b| =     5.721593
 CELL| Vector c [angstrom]:       0.000     0.000     5.722   |c| =     5.721683
 CELL| Angle (b,c), alpha [degree]:                                    89.999994
 CELL| Angle (a,c), beta  [degree]:                                    89.999835
 CELL| Angle (a,b), gamma [degree]:                                    90.000034
 CELL| Numerically orthorhombic:                                              NO
 CELL| Periodicity                                                           XYZ

 Extrapolation method: ASPC

 Number of electrons:                                                         64
 Number of occupied orbitals:                                                 32
 Number of molecular orbitals:                                                48

 Number of orbital functions:                                                 48
 Number of independent orbital functions:                                     48


 SCF WAVEFUNCTION OPTIMIZATION

  Step     Update method      Time    Convergence         Total energy    Change
  ------------------------------------------------------------------------------
     1 TBLite/Diag 0.40E+00    0.0     0.00100992       -41.2663892434 -4.13E+01
     2 TBLite/Diag 0.40E+00    0.0     0.00020063       -41.2663893200 -7.66E-08
     3 TBLite/Diag 0.40E+00    0.0     0.00003027       -41.2663893221 -2.14E-09
     4 TBLite/Diag 0.40E+00    0.0     0.00000797       -41.2663893223 -1.35E-10
     5 TBLite/Diag 0.40E+00    0.0     0.00000248       -41.2663893223 -5.34E-11
     6 TBLite/Diag 0.40E+00    0.0     0.00000043       -41.2663893223 -1.14E-12
     7 TBLite/Diag 0.40E+00    0.0     0.00000036       -41.2663893223 -3.34E-13
     8 TBLite/Diag 0.40E+00    0.0     0.00000011       -41.2663893223 -7.11E-14
     9 TBLite/Diag 0.40E+00    0.0     5.1004E-09       -41.2663893223  2.13E-14
    10 TBLite/Diag 0.40E+00    0.0     4.3896E-09       -41.2663893223  2.13E-14
    11 TBLite/Diag 0.40E+00    0.0     2.0242E-10       -41.2663893223 -5.68E-14

  *** SCF run converged in    11 steps ***


  Core Hamiltonian energy:                                    -41.87156520915534
  Repulsive potential energy:                                   0.48656310750412
  Electrostatic energy:                                         0.14609276730959
  Self-consistent dispersion energy:                           -0.03183316203260
  Non-self consistent dispersion energy:                        0.00435317404263
  Correction for halogen bonding:                               0.00000000000000
  Electronic entropic energy:                                  -0.00000000000000
  Fermi energy:                                                -0.25957376087802

  Total energy:                                               -41.26638932233160
  Total energy (extrapolated to T->0):                        -41.26638932233160

 ENERGY| Total FORCE_EVAL ( QS ) energy [hartree]            -41.266389322331598

 OPT| **************************************************************************
 OPT| Step number                                                             11
 OPT| Optimization method                                                   BFGS
 OPT| Total energy [hartree]                                      -41.2663893223
 OPT| Internal pressure [bar]                                     -95.7013698213
 OPT| Effective energy change [hartree]                            -0.0000033097
 OPT| Predicted energy change [hartree]                            -0.0000018699
 OPT| Scaling factor                                                0.0000000000
 OPT| Step size                                                     0.0020824013
 OPT| Trust radius                                                  0.4724315332
 OPT| Decrease in energy                                                     YES
 OPT| Used time [s]                                                        0.324
 OPT|
 OPT| Maximum step size                                             0.0020824013
 OPT| Convergence limit for maximum step size                       0.0030000000
 OPT| Maximum step size is converged                                         YES
 OPT|
 OPT| RMS step size                                                 0.0006642188
 OPT| Convergence limit for RMS step size                           0.0015000000
 OPT| RMS step size is converged                                             YES
 OPT|
 OPT| Maximum gradient                                              0.0006953078
 OPT| Convergence limit for maximum gradient                        0.0004500000
 OPT| Maximum gradient is converged                                           NO
 OPT|
 OPT| RMS gradient                                                  0.0002419788
 OPT| Convergence limit for RMS gradient                            0.0003000000
 OPT| RMS gradient is converged                                              YES
 OPT|
 OPT| Pressure deviation [bar]                                    -95.7013698213
 OPT| Pressure tolerance [bar]                                    100.0000000000
 OPT| Pressure is converged                                                  YES
 OPT| **************************************************************************
 OPT| Estimated peak process memory after this step [MiB]                    162

 --------------------------
 OPTIMIZATION STEP:     12
 --------------------------

 CELL| Volume [angstrom^3]:                                           187.683316
 CELL| Vector a [angstrom]:       5.725     0.000     0.000   |a| =     5.725308
 CELL| Vector b [angstrom]:      -0.000     5.725     0.000   |b| =     5.725450
 CELL| Vector c [angstrom]:       0.000     0.000     5.726   |c| =     5.725549
 CELL| Angle (b,c), alpha [degree]:                                    89.999989
 CELL| Angle (a,c), beta  [degree]:                                    89.999782
 CELL| Angle (a,b), gamma [degree]:                                    90.000050
 CELL| Numerically orthorhombic:                                              NO
 CELL| Periodicity                                                           XYZ

 Extrapolation method: ASPC

 Number of electrons:                                                         64
 Number of occupied orbitals:                                                 32
 Number of molecular orbitals:                                                48

 Number of orbital functions:                                                 48
 Number of independent orbital functions:                                     48


 SCF WAVEFUNCTION OPTIMIZATION

  Step     Update method      Time    Convergence         Total energy    Change
  ------------------------------------------------------------------------------
     1 TBLite/Diag 0.40E+00    0.0     0.00458420       -41.2663912767 -4.13E+01
     2 TBLite/Diag 0.40E+00    0.0     0.00038710       -41.2663918685 -5.92E-07
     3 TBLite/Diag 0.40E+00    0.0     0.00007785       -41.2663918896 -2.12E-08
     4 TBLite/Diag 0.40E+00    0.0     0.00005803       -41.2663919005 -1.09E-08
     5 TBLite/Diag 0.40E+00    0.0     0.00000949       -41.2663919015 -1.01E-09
     6 TBLite/Diag 0.40E+00    0.0     0.00001141       -41.2663919018 -2.38E-10
     7 TBLite/Diag 0.40E+00    0.0     0.00000120       -41.2663919018 -5.63E-12
     8 TBLite/Diag 0.40E+00    0.0     0.00000031       -41.2663919018 -2.49E-13
     9 TBLite/Diag 0.40E+00    0.0     0.00000002       -41.2663919018  7.11E-15
    10 TBLite/Diag 0.40E+00    0.0     0.00000002       -41.2663919018 -3.55E-14
    11 TBLite/Diag 0.40E+00    0.0     2.6325E-09       -41.2663919018  1.42E-14
    12 TBLite/Diag 0.40E+00    0.0     2.0255E-09       -41.2663919018  0.00E+00
    13 TBLite/Diag 0.40E+00    0.0     1.1813E-10       -41.2663919018  1.42E-14

  *** SCF run converged in    13 steps ***


  Core Hamiltonian energy:                                    -41.87207234165666
[...]
 OPT| RMS gradient is converged                                               NO
 OPT|
 OPT| Pressure deviation [bar]                                     26.1803109292
 OPT| Pressure tolerance [bar]                                    100.0000000000
 OPT| Pressure is converged                                                  YES
 OPT| **************************************************************************
 OPT| Estimated peak process memory after this step [MiB]                    162

 --------------------------
 OPTIMIZATION STEP:     14
 --------------------------

 CELL| Volume [angstrom^3]:                                           187.544111
 CELL| Vector a [angstrom]:       5.724     0.000     0.000   |a| =     5.723892
 CELL| Vector b [angstrom]:      -0.000     5.724     0.000   |b| =     5.724034
 CELL| Vector c [angstrom]:       0.000     0.000     5.724   |c| =     5.724133
 CELL| Angle (b,c), alpha [degree]:                                    89.999994
 CELL| Angle (a,c), beta  [degree]:                                    89.999791
 CELL| Angle (a,b), gamma [degree]:                                    90.000041
 CELL| Numerically orthorhombic:                                              NO
 CELL| Periodicity                                                           XYZ

 Extrapolation method: ASPC

 Number of electrons:                                                         64
 Number of occupied orbitals:                                                 32
 Number of molecular orbitals:                                                48

 Number of orbital functions:                                                 48
 Number of independent orbital functions:                                     48


 SCF WAVEFUNCTION OPTIMIZATION

  Step     Update method      Time    Convergence         Total energy    Change
  ------------------------------------------------------------------------------
     1 TBLite/Diag 0.40E+00    0.0     0.00153815       -41.2663928732 -4.13E+01
     2 TBLite/Diag 0.40E+00    0.0     0.00045118       -41.2663936298 -7.57E-07
     3 TBLite/Diag 0.40E+00    0.0     0.00006636       -41.2663936607 -3.10E-08
     4 TBLite/Diag 0.40E+00    0.0     0.00010708       -41.2663936743 -1.36E-08
     5 TBLite/Diag 0.40E+00    0.0     0.00000405       -41.2663936745 -1.71E-10
     6 TBLite/Diag 0.40E+00    0.0     0.00000811       -41.2663936746 -7.80E-11
     7 TBLite/Diag 0.40E+00    0.0     0.00000104       -41.2663936746 -8.60E-12
     8 TBLite/Diag 0.40E+00    0.0     0.00000012       -41.2663936746 -3.55E-14
     9 TBLite/Diag 0.40E+00    0.0     0.00000002       -41.2663936746 -7.11E-15
    10 TBLite/Diag 0.40E+00    0.0     0.00000001       -41.2663936746  7.11E-15
    11 TBLite/Diag 0.40E+00    0.0     1.1472E-09       -41.2663936746 -1.42E-14
    12 TBLite/Diag 0.40E+00    0.0     6.1422E-10       -41.2663936746  7.11E-15

  *** SCF run converged in    12 steps ***


  Core Hamiltonian energy:                                    -41.87183414383136
  Repulsive potential energy:                                   0.48677362932822
  Electrostatic energy:                                         0.14611343373444
  Self-consistent dispersion energy:                           -0.03178919772788
  Non-self consistent dispersion energy:                        0.00434260390699
  Correction for halogen bonding:                               0.00000000000000
  Electronic entropic energy:                                  -0.00000000000000
  Fermi energy:                                                -0.25950887276480

  Total energy:                                               -41.26639367458958
  Total energy (extrapolated to T->0):                        -41.26639367458958

 ENERGY| Total FORCE_EVAL ( QS ) energy [hartree]            -41.266393674589580

 OPT| **************************************************************************
 OPT| Step number                                                             14
 OPT| Optimization method                                                   BFGS
 OPT| Total energy [hartree]                                      -41.2663936746
 OPT| Internal pressure [bar]                                       8.5213720772
 OPT| Effective energy change [hartree]                            -0.0000010206
 OPT| Predicted energy change [hartree]                            -0.0000011056
 OPT| Scaling factor                                                0.0000000000
 OPT| Step size                                                     0.0022383036
 OPT| Trust radius                                                  0.4724315332
 OPT| Decrease in energy                                                     YES
 OPT| Used time [s]                                                        0.330
 OPT|
 OPT| Maximum step size                                             0.0022383036
 OPT| Convergence limit for maximum step size                       0.0030000000
 OPT| Maximum step size is converged                                         YES
 OPT|
 OPT| RMS step size                                                 0.0007058441
 OPT| Convergence limit for RMS step size                           0.0015000000
 OPT| RMS step size is converged                                             YES
 OPT|
 OPT| Maximum gradient                                              0.0000886843
 OPT| Convergence limit for maximum gradient                        0.0004500000
 OPT| Maximum gradient is converged                                          YES
 OPT|
 OPT| RMS gradient                                                  0.0000293907
 OPT| Convergence limit for RMS gradient                            0.0003000000
 OPT| RMS gradient is converged                                              YES
 OPT|
 OPT| Pressure deviation [bar]                                      8.5213720772
 OPT| Pressure tolerance [bar]                                    100.0000000000
 OPT| Pressure is converged                                                  YES
 OPT| **************************************************************************
 OPT| Estimated peak process memory after this step [MiB]                    162

 *******************************************************************************
 ***                    GEOMETRY OPTIMIZATION COMPLETED                      ***
 *******************************************************************************

 write_final_structure: Optimization converged, writing XYZ file gladly:
  co2_GFN2_gamma_cell_opt-FINAL-1_14.xyz

 write_final_structure: Optimization converged, writing CIF file gladly:
  co2_GFN2_gamma_cell_opt-FINAL-1_14.cif

 write_final_structure: Done!

                    Reevaluating energy at the minimum

 CELL| Volume [angstrom^3]:                                           187.544111
 CELL| Vector a [angstrom]:       5.724     0.000     0.000   |a| =     5.723892
 CELL| Vector b [angstrom]:      -0.000     5.724     0.000   |b| =     5.724034
 CELL| Vector c [angstrom]:       0.000     0.000     5.724   |c| =     5.724133
 CELL| Angle (b,c), alpha [degree]:                                    89.999994
 CELL| Angle (a,c), beta  [degree]:                                    89.999791
 CELL| Angle (a,b), gamma [degree]:                                    90.000041
 CELL| Numerically orthorhombic:                                              NO
 CELL| Periodicity                                                           XYZ

 Extrapolation method: ASPC

 Number of electrons:                                                         64
 Number of occupied orbitals:                                                 32
 Number of molecular orbitals:                                                48

 Number of orbital functions:                                                 48
 Number of independent orbital functions:                                     48


 SCF WAVEFUNCTION OPTIMIZATION

  Step     Update method      Time    Convergence         Total energy    Change
  ------------------------------------------------------------------------------
     1 TBLite/Diag 0.40E+00    0.0     5.3757E-11       -41.2663936746 -4.13E+01

  *** SCF run converged in     1 steps ***


  Core Hamiltonian energy:                                    -41.87183414384349
  Repulsive potential energy:                                   0.48677362932822
  Electrostatic energy:                                         0.14611343374660
  Self-consistent dispersion energy:                           -0.03178919772791
  Non-self consistent dispersion energy:                        0.00434260390699
  Correction for halogen bonding:                               0.00000000000000
  Electronic entropic energy:                                  -0.00000000000000
  Fermi energy:                                                -0.25950887275667

  Total energy:                                               -41.26639367458959
  Total energy (extrapolated to T->0):                        -41.26639367458959

 ENERGY| Total FORCE_EVAL ( QS ) energy [hartree]            -41.266393674589587

 -------------------------------------------------------------------------------
 -                                                                             -
 -                                DBCSR STATISTICS                             -
 -                                                                             -
 -------------------------------------------------------------------------------
 COUNTER                                    TOTAL       BLAS       SMM       ACC
 flops     4 x    16 x     4              4792320       0.0%    100.0%      0.0%     
 flops     4 x    32 x     4              9584640       0.0%    100.0%      0.0%     
 flops     4 x     4 x    48             25159680       0.0%    100.0%      0.0%     
 flops inhomo. stacks                           0       0.0%      0.0%      0.0%
 flops total                        39.536640E+06       0.0%    100.0%      0.0%
 flops max/rank                     39.536640E+06       0.0%    100.0%      0.0%
 matmuls inhomo. stacks                         0       0.0%      0.0%      0.0%
 matmuls total                              35100       0.0%    100.0%      0.0%
 number of processed stacks                   340       0.0%    100.0%      0.0%
 average stack size                                     0.0     103.2       0.0
 marketing flops                    45.342720E+06
 -------------------------------------------------------------------------------
 # multiplications                            275
 max memory usage/rank              13.668762E+09
 # max total images/rank                        1
 # max 3D layers                                1
 # MPI messages exchanged                       0
 -------------------------------------------------------------------------------
 -                                                                             -
 -                      DBCSR MESSAGE PASSING PERFORMANCE                      -
 -                                                                             -
 -------------------------------------------------------------------------------
 ROUTINE             CALLS      AVE VOLUME [Bytes]
 MP_Bcast                4                     12.
 MP_Allreduce         1270                      8.
 MP_Alltoall          9045                  11832.
 MP_ISend             1100                    764.
 MP_IRecv             1100                    764.
 -------------------------------------------------------------------------------

 -------------------------------------------------------------------------------
 -                                                                             -
 -                          OFFLOAD MEMPOOL STATISTICS                         -
 -                                                                             -
 -------------------------------------------------------------------------------
 Memory consumption                Number of allocations  Used [MiB]  Size [MiB]
 Device                                                1           0           0
 Host                                                  1           0           0
 -------------------------------------------------------------------------------

 MEMORY| Estimated peak process memory [MiB]                                 162

 -------------------------------------------------------------------------------
 -                                                                             -
 -                         MESSAGE PASSING PERFORMANCE                         -
 -                                                                             -
 -------------------------------------------------------------------------------

 ROUTINE             CALLS      AVE VOLUME [Bytes]
 MP_Group               15
 MP_Bcast              418                    193.
 MP_Allreduce         6301                     97.
 MP_Sync               224
 MP_comm_split         209
 -------------------------------------------------------------------------------


 -------------------------------------------------------------------------------
 -                                                                             -
 -                           R E F E R E N C E S                               -
 -                                                                             -
 -------------------------------------------------------------------------------
 
 CP2K version 2026.1 (Development Version), the CP2K developers group (2026).
 CP2K is freely available from https://www.cp2k.org/ .
 
 M. Iannuzzi, J. Wilhelm, F. Stein, A. Bussy, H. Elgabarty, D. Golze, A. Hehn, 
 M. Graml, S. Marek, B. Sertcan Gökmen, C. Schran, H. Forbert, R. Z. 
 Khaliullin, A. Kozhevnikov, M. Taillefumier, R. Meli, V. V. Rybkin, M. Brehm, 
 R. Schade, O. Schütt, J. V. Pototschnig, H. Mirhosseini, A. Knüpfer, D. Marx, 
 M. Krack, J. Hutter, T. D. Kühne.
 J. Phys. Chem. B 130, 1237-1310 (2026).
 The CP2K Program Package Made Simple.
 https://doi.org/10.1021/acs.jpcb.5c05851

 A. Katbashev, M. Stahn, T. Rose, V. Alizadeh, M. Friede, C. Plett, P. 
 Steinbach, S. Ehlert.
 J. Phys. Chem. A 129, 2667-2682 (2025).
 Overview on Building Blocks and Applications of Efficient and Robust Extended 
 Tight Binding.
 https://doi.org/10.1021/acs.jpca.4c08263

 T. D. Kühne, M. Iannuzzi, M. Del Ben, V. V. Rybkin, P. Seewald, F. Stein, T. 
 Laino, R. Z. Khaliullin, O. Schütt, F. Schiffmann, D. Golze, J. Wilhelm, S. 
 Chulkov, M. H. Bani-Hashemian, V. Weber, U. Borstnik, M. Taillefumier, A. S. 
 Jakobovits, A. Lazzaro, H. Pabst, T. Müller, R. Schade, M. Guidon, S. 
 Andermatt, N. Holmberg, G. K. Schenter, A. Hehn, A. Bussy, F. Belleflamme, G. 
 Tabacchi, A. Glöß, M. Lass, I. Bethune, C. J. Mundy, C. Plessl, M. Watkins, 
 J. VandeVondele, M. Krack, J. Hutter.
 J. Chem. Phys. 152, 194103 (2020).
 CP2K: An electronic structure and molecular dynamics software package - 
 Quickstep: Efficient and accurate electronic structure calculations.
 https://doi.org/10.1063/5.0007045

 P. Pracht, E. Caldeweyher, S. Ehlert, S. Grimme.
 ChemRxiv, (2019).
 A Robust Non-Self-Consistent Tight-Binding Quantum Chemistry Method for large 
 Molecules.
 https://doi.org/10.26434/chemrxiv.8326202.v1

 S. Grimme, C. Bannwarth, P. Shushkov.
 J. Chem. Theory Comput. 13, 1989 (2017).
 A Robust and Accurate Tight-Binding Quantum Chemical Method for Structures, 
 Vibrational Frequencies, and Noncovalent Interactions of Large Molecular 
 Systems Parametrized for All spd-Block Elements (Z = 1-86).
 https://doi.org/10.1021/acs.jctc.7b00118

 O. Schuett, P. Messmer, J. Hutter, J. VandeVondele.
 Electronic Structure Calculations on Graphics Processing Units, 173-190 (2016).
 GPU-Accelerated Sparse Matrix-Matrix Multiplication for Linear Scaling Density 
 Functional Theory.
 https://doi.org/10.1002/9781118670712.ch8

 A. Heinecke, G. Henry, M. Hutchinson, H. Pabst.
 Proceedings of Intl. Supercomputing Conference, 981-991 (2016).
 LIBXSMM: Accelerating Small Matrix Multiplications by Runtime Code Generation.
 https://doi.org/10.1109/SC.2016.83

 U. Borstnik, J. VandeVondele, V. Weber, J. Hutter.
 Parallel Comput. 40, 47-58 (2014).
 Sparse matrix multiplication: The distributed block-compressed sparse row 
 library.
 https://doi.org/10.1016/j.parco.2014.03.012

 T. D. Kühne, M. Krack, F. R. Mohamed, M. Parrinello.
 Phys. Rev. Lett. 98, 066401 (2007).
 Efficient and accurate Car-Parrinello-like approach to Born-Oppenheimer 
 molecular dynamics.
 https://doi.org/10.1103/PhysRevLett.98.066401

 M. Frigo, S. G. Johnson.
 Proc. IEEE 93, 216-231 (2005).
 The design and implementation of FFTW3.
 https://doi.org/10.1109/JPROC.2004.840301

 J. Kolafa.
 J. Comput. Chem. 25, 335-342 (2004).
 Time-reversible always stable predictor-corrector method for molecular dynamics 
 of polarizable molecules.
 https://doi.org/10.1002/jcc.10385

 N. D. Mermin.
 Phys. Rev. 137, A1441-A1443 (1965).
 Thermal Properties of the Inhomogeneous Electron Gas.
 https://doi.org/10.1103/PhysRev.137.A1441


 -------------------------------------------------------------------------------
 -                                                                             -
 -                                T I M I N G                                  -
 -                                                                             -
 -------------------------------------------------------------------------------
 SUBROUTINE                       CALLS  ASD         SELF TIME        TOTAL TIME
                                MAXIMUM       AVERAGE  MAXIMUM  AVERAGE  MAXIMUM
 CP2K                                 1  1.0    0.002    0.002    5.141    5.141
 cp_cell_opt                          1  2.0    0.000    0.000    5.135    5.135
 geoopt_bfgs                          1  3.0    0.002    0.002    5.135    5.135
 cp_eval_at                          16  4.0    0.002    0.002    5.114    5.114
 qs_forces                           15  5.0    0.001    0.001    5.027    5.027
 build_tblite_matrices               31  7.0    3.759    3.759    3.898    3.898
 qs_energies                         16  5.9    0.001    0.001    1.747    1.747
 qs_energies_init_hamiltonians       16  6.9    0.000    0.000    1.268    1.268
 rebuild_ks_matrix                  195  9.8    0.000    0.000    0.787    0.787
 build_tblite_ks_matrix             195 10.8    0.782    0.782    0.786    0.786
 qs_ks_update_qs_env_forces          15  6.0    0.000    0.000    0.725    0.725
 scf_env_do_scf                      16  6.9    0.000    0.000    0.403    0.403
 scf_env_do_scf_inner_loop          180  8.0    0.036    0.036    0.402    0.402
 qs_scf_new_mos                     180  9.0    0.001    0.001    0.283    0.283
 tb_get_multipole                    31  8.0    0.120    0.120    0.134    0.134
 cp_dbcsr_plus_fm_fm_t              210 10.8    0.002    0.002    0.126    0.126
 calculate_dm_sparse                195 10.0    0.001    0.001    0.119    0.119
 dbcsr_multiply_generic             275 12.0    0.006    0.006    0.106    0.106
 -------------------------------------------------------------------------------

 The number of warnings for this run is : 0
 
 -------------------------------------------------------------------------------
  **** **** ******  **  PROGRAM ENDED AT                 2026-05-23 22:47:25.890
 ***** ** ***  *** **   PROGRAM RAN ON                                spark-c86c
 **    ****   ******    PROGRAM RAN BY                                  kuehne88
 ***** **    ** ** **   PROGRAM PROCESS ID                               2268645
  **** **  *******  **  PROGRAM STOPPED IN /home/kuehne88/periodic-gfn2-benchmar
                                           ks/X23b/runs/cellopt_gamma/GFN2/co2_G
                                           FN2_gamma_cellopt
