 DBCSR| CPU Multiplication driver                                           XSMM (U)
 DBCSR| Multrec recursion limit                                              512 (U)
 DBCSR| Multiplication stack size                                           1000 (D)
 DBCSR| Maximum elements for images                                    UNLIMITED (U)
 DBCSR| Multiplicative factor virtual images                                   1 (U)
 DBCSR| Use multiplication densification                                       T (D)
 DBCSR| Multiplication size stacks                                             3 (U)
 DBCSR| Use memory pool for CPU allocation                                     F (U)
 DBCSR| Number of 3D layers                                               SINGLE (U)
 DBCSR| Use MPI memory allocation                                              F (U)
 DBCSR| Use RMA algorithm                                                      F (U)
 DBCSR| Use Communication thread                                               T (U)
 DBCSR| Communication thread load                                             87 (D)
 DBCSR| MPI: My process id                                                     0
 DBCSR| MPI: Number of processes                                               1
 DBCSR| OMP: Current number of threads                                         1
 DBCSR| OMP: Max number of threads                                             1
 DBCSR| Split modifier for TAS multiplication algorithm                  1.0E+00 (U)


  **** **** ******  **  PROGRAM STARTED AT               2026-05-23 22:47:42.198
 ***** ** ***  *** **   PROGRAM STARTED ON                            spark-c86c
 **    ****   ******    PROGRAM STARTED BY                              kuehne88
 ***** **    ** ** **   PROGRAM PROCESS ID                               2270081
  **** **  *******  **  PROGRAM STARTED IN /home/kuehne88/periodic-gfn2-benchmar
                                           ks/X23b/runs/cellopt_gamma/GFN2/oxali
                                           c_acid_alpha_GFN2_gamma_cellopt

 CP2K| version string:                 CP2K version 2026.1 (Development Version)
 CP2K| source code revision number:                                   0622d442e4
 CP2K| cp2kflags: omp fftw3 libxc parallel scalapack mpi_f08 xsmm spglib libdftd
 CP2K|            4 dftd4_v3 mctc-lib tblite
 CP2K| is freely available from                            https://www.cp2k.org/
 CP2K| Program compiled at                                   2026-05-23 22:05:08
 CP2K| Program compiled on                                            spark-c86c
 CP2K| Program compiled for                                              aarch64
 CP2K| Data directory path    /home/kuehne88/cp2k-master-tblite-20260523/install
 CP2K| Input file name                  oxalic_acid_alpha_GFN2_gamma_cellopt.inp

 GLOBAL| Force Environment number                                              1
 GLOBAL| Basis set file name                                           BASIS_SET
 GLOBAL| Potential file name                                           POTENTIAL
 GLOBAL| MM Potential file name                                     MM_POTENTIAL
 GLOBAL| Coordinate file name                                      __STD_INPUT__
 GLOBAL| Method name                                                        CP2K
 GLOBAL| Project name                      oxalic_acid_alpha_GFN2_gamma_cell_opt
 GLOBAL| Run type                                                       CELL_OPT
 GLOBAL| FFT library                                                       FFTW3
 GLOBAL| Diagonalization library                                       ScaLAPACK
 GLOBAL| Cholesky decomposition library                                ScaLAPACK
 GLOBAL| DGEMM library                                                      BLAS
 GLOBAL| Direct generalized diagonalization requested                          F
 GLOBAL| Orthonormality check for eigenvectors                          DISABLED
 GLOBAL| Matrix multiplication library                                 ScaLAPACK
 GLOBAL| All-to-all communication in single precision                          F
 GLOBAL| FFTs using library dependent lengths                                  F
 GLOBAL| Grid backend                                                       AUTO
 GLOBAL| Global print level                                                  LOW
 GLOBAL| MPI I/O enabled                                                       T
 GLOBAL| Total number of message passing processes                             1
 GLOBAL| Number of distributed systems (nodes)                                 1
 GLOBAL| Number of threads for this process                                    1
 GLOBAL| This output is from process                                           0
 GLOBAL| OpenMP stack size per thread (OMP_STACKSIZE)                    default
 GLOBAL| CPU model name                                                  UNKNOWN
 GLOBAL| CPUID                                                              2200
 GLOBAL| Compiled for CPUID                                                 2000

 *** HINT in environment.F:970 :: The compiler target flags (arm_arch64)   ***
 *** used to build this binary cannot exploit all extensions of this CPU   ***
 *** model (arm_sve256). Consider compiler target flags as part of FCFLAGS ***
 *** and CFLAGS (ARCH file).                                               ***


 MEMORY| system memory details [Kb]
 MEMORY|                        rank 0           min           max       average
 MEMORY| MemTotal            125508532     125508532     125508532     125508532
 MEMORY| MemFree             104392668     104392668     104392668     104392668
 MEMORY| Buffers                868256        868256        868256        868256
 MEMORY| Cached               14087124      14087124      14087124      14087124
 MEMORY| Slab                  1597784       1597784       1597784       1597784
 MEMORY| SReclaimable           919728        919728        919728        919728
 MEMORY| MemLikelyFree       120267776     120267776     120267776     120267776


 GENERATE|  Preliminary Number of Bonds generated:                             0
 GENERATE|  Achieved consistency in connectivity generation.


                  #####   #####        #     #   #     #       #          
                 #     # #     #      #    ##### #     #   # #####  ####  
                 #     # #           #       #   ###   #       #   #    # 
                 #     #  #####     #        #   #  #  #   #   #   ###### 
                 #   # #       #   #         #   #   # #   #   #   #      
                 #    #  #     #  #          #   #  #  # # #   #    #   # 
                  #### #  #####  #           #   ###   ##  #   #     ###  

                                   GFN2-xTB  
                                 Version 0.0                       
                            Johann V. Pototschnig                  



 TOTAL NUMBERS AND MAXIMUM NUMBERS

  Total number of            - Atomic kinds:                                   3
                             - Atoms:                                         32
                             - Shell sets:                                    56
                             - Shells:                                        56
                             - Primitive Cartesian functions:                216
                             - Cartesian basis functions:                    104
                             - Spherical basis functions:                    104

  Maximum angular momentum of the orbital basis functions:                     1


 SCF PARAMETERS         Density guess:                                     MOPAC
                        --------------------------------------------------------
                        max_scf:                                             300
                        max_scf_history:                                       0
                        max_diis:                                              4
                        --------------------------------------------------------
                        eps_scf:                                        1.00E-09
                        eps_scf_history:                                0.00E+00
                        eps_diis:                                       1.00E-01
                        eps_eigval:                                     1.00E-05
                        --------------------------------------------------------
                        level_shift [a.u.]:                             0.000000
                        added MOs                                        36    0
                        --------------------------------------------------------
                        Mixing method:                           DIRECT_P_MIXING
                        --------------------------------------------------------
                        Smear method:                                FERMI_DIRAC
                        Electronic temperature [K]:                        300.0
                        Electronic temperature [a.u.]:                  9.50E-04
                        Accuracy threshold:                             1.00E-06
                        --------------------------------------------------------
                        No outer SCF

 CELL_OPT| Pressure tolerance [bar]:                                       100.0
 CELL_OPT| Keep volume of cell:                                               NO
 CELL_OPT| Keep angles between the cell vectors:                              NO
 CELL_OPT| Keep cell symmetry:                                                NO
 CELL_OPT| Constraint:                                                      NONE

 BFGS| Use rational function optimization for step estimation:                NO
 BFGS| Use model Hessian for initial guess:                                   NO
 BFGS| Restart Hessian:                                                       NO
 BFGS| Trust radius:                                                       0.472

 *******************************************************************************
 ***                     STARTING   CELL   OPTIMIZATION                      ***
 ***                                   BFGS                                  ***
 *******************************************************************************

 CELL| Volume [angstrom^3]:                                           312.592248
 CELL| Vector a [angstrom]:       6.548     0.000     0.000   |a| =     6.548000
 CELL| Vector b [angstrom]:       0.000     7.844     0.000   |b| =     7.844000
 CELL| Vector c [angstrom]:       0.000     0.000     6.086   |c| =     6.086000
 CELL| Angle (b,c), alpha [degree]:                                    90.000000
 CELL| Angle (a,c), beta  [degree]:                                    90.000000
 CELL| Angle (a,b), gamma [degree]:                                    90.000000
 CELL| Numerically orthorhombic:                                             YES
 CELL| Periodicity                                                           XYZ

 Extrapolation method: initial_guess

 Number of electrons:                                                        136
 Number of occupied orbitals:                                                 68
 Number of molecular orbitals:                                               104

 Number of orbital functions:                                                104
 Number of independent orbital functions:                                    104


 SCF WAVEFUNCTION OPTIMIZATION

  Step     Update method      Time    Convergence         Total energy    Change
  ------------------------------------------------------------------------------
     1 TBLite/Diag 0.40E+00    0.0     0.71541710       -84.7900315955 -8.48E+01
     2 TBLite/Diag 0.40E+00    0.0     0.31996231       -86.2984450294 -1.51E+00
     3 TBLite/Diag 0.40E+00    0.0     0.07534710       -86.3401899061 -4.17E-02
     4 TBLite/Diag 0.40E+00    0.0     0.03935752       -86.3464873841 -6.30E-03
     5 TBLite/Diag 0.40E+00    0.0     0.02170862       -86.3492683765 -2.78E-03
     6 TBLite/Diag 0.40E+00    0.0     0.00236252       -86.3495900542 -3.22E-04
     7 TBLite/Diag 0.40E+00    0.0     0.00287555       -86.3497323262 -1.42E-04
     8 TBLite/Diag 0.40E+00    0.0     0.00023277       -86.3497335217 -1.20E-06
     9 TBLite/Diag 0.40E+00    0.0     0.00004247       -86.3497335237 -1.97E-09
    10 TBLite/Diag 0.40E+00    0.0     0.00002693       -86.3497335299 -6.17E-09
    11 TBLite/Diag 0.40E+00    0.0     0.00000229       -86.3497335299 -3.59E-11
    12 TBLite/Diag 0.40E+00    0.0     0.00000111       -86.3497335299 -2.71E-11
    13 TBLite/Diag 0.40E+00    0.0     0.00000055       -86.3497335299 -3.38E-12
    14 TBLite/Diag 0.40E+00    0.0     0.00000008       -86.3497335299  9.95E-14
    15 TBLite/Diag 0.40E+00    0.0     0.00000002       -86.3497335299 -1.28E-13
    16 TBLite/Diag 0.40E+00    0.0     1.9970E-09       -86.3497335299 -1.42E-14
    17 TBLite/Diag 0.40E+00    0.0     8.2354E-10       -86.3497335299  0.00E+00

  *** SCF run converged in    17 steps ***


  Core Hamiltonian energy:                                    -87.22149274931787
  Repulsive potential energy:                                   0.66959858493247
  Electrostatic energy:                                         0.27381533545835
  Self-consistent dispersion energy:                           -0.08968410980289
  Non-self consistent dispersion energy:                        0.01802940879405
  Correction for halogen bonding:                               0.00000000000000
  Electronic entropic energy:                                  -0.00000000000000
  Fermi energy:                                                -0.34524541615686

  Total energy:                                               -86.34973352993589
  Total energy (extrapolated to T->0):                        -86.34973352993589

 ENERGY| Total FORCE_EVAL ( QS ) energy [hartree]            -86.349733529935889

 OPT| **************************************************************************
 OPT| Step number                                                              0
 OPT| Optimization method                                                   BFGS
 OPT| Total energy [hartree]                                      -86.3497335299
 OPT| Internal pressure [bar]                                   31486.2769847604
 OPT| Used time [s]                                                        1.770
 OPT| **************************************************************************
 OPT| Estimated peak process memory [MiB]                                    165

 --------------------------
 OPTIMIZATION STEP:      1
 --------------------------

 CELL| Volume [angstrom^3]:                                           313.789428
 CELL| Vector a [angstrom]:       6.548     0.000     0.000   |a| =     6.547799
 CELL| Vector b [angstrom]:       0.000     7.859     0.000   |b| =     7.859410
 CELL| Vector c [angstrom]:       0.000     0.000     6.098   |c| =     6.097517
 CELL| Angle (b,c), alpha [degree]:                                    90.000000
 CELL| Angle (a,c), beta  [degree]:                                    90.000000
 CELL| Angle (a,b), gamma [degree]:                                    90.000000
 CELL| Numerically orthorhombic:                                             YES
 CELL| Periodicity                                                           XYZ

 Extrapolation method: ASPC

 Number of electrons:                                                        136
 Number of occupied orbitals:                                                 68
 Number of molecular orbitals:                                               104

 Number of orbital functions:                                                104
 Number of independent orbital functions:                                    104


 SCF WAVEFUNCTION OPTIMIZATION

  Step     Update method      Time    Convergence         Total energy    Change
  ------------------------------------------------------------------------------
     1 TBLite/Diag 0.40E+00    0.0     0.05755074       -86.3723230651 -8.64E+01
     2 TBLite/Diag 0.40E+00    0.0     0.00525860       -86.3725370238 -2.14E-04
     3 TBLite/Diag 0.40E+00    0.0     0.00135897       -86.3725529641 -1.59E-05
     4 TBLite/Diag 0.40E+00    0.0     0.00079344       -86.3725622993 -9.34E-06
     5 TBLite/Diag 0.40E+00    0.0     0.00029213       -86.3725635244 -1.23E-06
     6 TBLite/Diag 0.40E+00    0.0     0.00010027       -86.3725636296 -1.05E-07
     7 TBLite/Diag 0.40E+00    0.0     0.00001196       -86.3725636314 -1.83E-09
     8 TBLite/Diag 0.40E+00    0.0     0.00000139       -86.3725636315 -3.31E-11
     9 TBLite/Diag 0.40E+00    0.0     0.00000091       -86.3725636315 -9.28E-12
    10 TBLite/Diag 0.40E+00    0.0     0.00000017       -86.3725636315 -1.14E-13
    11 TBLite/Diag 0.40E+00    0.0     0.00000007       -86.3725636315 -1.14E-13
    12 TBLite/Diag 0.40E+00    0.0     2.0660E-09       -86.3725636315  1.42E-14
    13 TBLite/Diag 0.40E+00    0.0     1.0447E-09       -86.3725636315 -2.84E-14
    14 TBLite/Diag 0.40E+00    0.0     2.4285E-10       -86.3725636315  4.26E-14

  *** SCF run converged in    14 steps ***


  Core Hamiltonian energy:                                    -87.18130007144262
  Repulsive potential energy:                                   0.60083173740620
  Electrostatic energy:                                         0.27929591932660
  Self-consistent dispersion energy:                           -0.08929933236468
  Non-self consistent dispersion energy:                        0.01790811559566
  Correction for halogen bonding:                               0.00000000000000
  Electronic entropic energy:                                  -0.00000000000000
  Fermi energy:                                                -0.34422916149078

  Total energy:                                               -86.37256363147884
  Total energy (extrapolated to T->0):                        -86.37256363147884

 ENERGY| Total FORCE_EVAL ( QS ) energy [hartree]            -86.372563631478840

 OPT| **************************************************************************
 OPT| Step number                                                              1
 OPT| Optimization method                                                   BFGS
 OPT| Total energy [hartree]                                      -86.3725636315
 OPT| Internal pressure [bar]                                    1158.5678073327
 OPT| Effective energy change [hartree]                            -0.0228301015
 OPT| Predicted energy change [hartree]                            -0.0224151978
 OPT| Scaling factor                                                0.0000000000
 OPT| Step size                                                     0.0418517033
 OPT| Trust radius                                                  0.4724315332
 OPT| Decrease in energy                                                     YES
 OPT| Used time [s]                                                        1.750
 OPT|
 OPT| Maximum step size                                             0.0418517033
 OPT| Convergence limit for maximum step size                       0.0030000000
 OPT| Maximum step size is converged                                          NO
 OPT|
 OPT| RMS step size                                                 0.0209645816
 OPT| Convergence limit for RMS step size                           0.0015000000
 OPT| RMS step size is converged                                              NO
 OPT|
 OPT| Maximum gradient                                              0.0223084292
 OPT| Convergence limit for maximum gradient                        0.0004500000
 OPT| Maximum gradient is converged                                           NO
 OPT|
 OPT| RMS gradient                                                  0.0066728631
 OPT| Convergence limit for RMS gradient                            0.0003000000
 OPT| RMS gradient is converged                                               NO
 OPT|
 OPT| Pressure deviation [bar]                                   1158.5678073327
 OPT| Pressure tolerance [bar]                                    100.0000000000
 OPT| Pressure is converged                                                   NO
 OPT| **************************************************************************
 OPT| Estimated peak process memory after this step [MiB]                    166

 --------------------------
 OPTIMIZATION STEP:      2
 --------------------------

 CELL| Volume [angstrom^3]:                                           313.699701
 CELL| Vector a [angstrom]:       6.541     0.000     0.000   |a| =     6.540693
 CELL| Vector b [angstrom]:       0.000     7.874     0.000   |b| =     7.874009
 CELL| Vector c [angstrom]:       0.000     0.000     6.091   |c| =     6.091082
 CELL| Angle (b,c), alpha [degree]:                                    90.000000
 CELL| Angle (a,c), beta  [degree]:                                    90.000000
 CELL| Angle (a,b), gamma [degree]:                                    90.000000
 CELL| Numerically orthorhombic:                                             YES
 CELL| Periodicity                                                           XYZ

 Extrapolation method: ASPC

 Number of electrons:                                                        136
 Number of occupied orbitals:                                                 68
 Number of molecular orbitals:                                               104

 Number of orbital functions:                                                104
 Number of independent orbital functions:                                    104


 SCF WAVEFUNCTION OPTIMIZATION

  Step     Update method      Time    Convergence         Total energy    Change
  ------------------------------------------------------------------------------
     1 TBLite/Diag 0.40E+00    0.0     0.00880872       -86.3771341046 -8.64E+01
     2 TBLite/Diag 0.40E+00    0.0     0.00169260       -86.3771775583 -4.35E-05
     3 TBLite/Diag 0.40E+00    0.0     0.00074524       -86.3771787874 -1.23E-06
     4 TBLite/Diag 0.40E+00    0.0     0.00031411       -86.3771796636 -8.76E-07
     5 TBLite/Diag 0.40E+00    0.0     0.00011455       -86.3771798273 -1.64E-07
     6 TBLite/Diag 0.40E+00    0.0     0.00001207       -86.3771798292 -1.96E-09
     7 TBLite/Diag 0.40E+00    0.0     0.00000176       -86.3771798292 -2.54E-11
     8 TBLite/Diag 0.40E+00    0.0     0.00000025       -86.3771798292 -1.04E-12
     9 TBLite/Diag 0.40E+00    0.0     0.00000018       -86.3771798292 -1.42E-13
    10 TBLite/Diag 0.40E+00    0.0     0.00000002       -86.3771798292 -9.95E-14
    11 TBLite/Diag 0.40E+00    0.0     5.2973E-09       -86.3771798292  9.95E-14
    12 TBLite/Diag 0.40E+00    0.0     7.5480E-10       -86.3771798292  4.26E-14

  *** SCF run converged in    12 steps ***


  Core Hamiltonian energy:                                    -87.18516189219724
  Repulsive potential energy:                                   0.60167871168895
  Electrostatic energy:                                         0.27770202989415
  Self-consistent dispersion energy:                           -0.08932029136114
  Non-self consistent dispersion energy:                        0.01792161273637
  Correction for halogen bonding:                               0.00000000000000
  Electronic entropic energy:                                  -0.00000000000000
  Fermi energy:                                                -0.34466241877267

  Total energy:                                               -86.37717982923890
  Total energy (extrapolated to T->0):                        -86.37717982923890

 ENERGY| Total FORCE_EVAL ( QS ) energy [hartree]            -86.377179829238898

 OPT| **************************************************************************
 OPT| Step number                                                              2
 OPT| Optimization method                                                   BFGS
 OPT| Total energy [hartree]                                      -86.3771798292
 OPT| Internal pressure [bar]                                    2395.1996770655
 OPT| Effective energy change [hartree]                            -0.0046161978
 OPT| Predicted energy change [hartree]                            -0.0026833001
 OPT| Scaling factor                                                0.0000000000
 OPT| Step size                                                     0.0275868821
 OPT| Trust radius                                                  0.4724315332
 OPT| Decrease in energy                                                     YES
 OPT| Used time [s]                                                        1.737
 OPT|
 OPT| Maximum step size                                             0.0275868821
 OPT| Convergence limit for maximum step size                       0.0030000000
 OPT| Maximum step size is converged                                          NO
 OPT|
 OPT| RMS step size                                                 0.0082058203
 OPT| Convergence limit for RMS step size                           0.0015000000
 OPT| RMS step size is converged                                              NO
 OPT|
 OPT| Maximum gradient                                              0.0185760234
 OPT| Convergence limit for maximum gradient                        0.0004500000
 OPT| Maximum gradient is converged                                           NO
 OPT|
 OPT| RMS gradient                                                  0.0054289131
 OPT| Convergence limit for RMS gradient                            0.0003000000
 OPT| RMS gradient is converged                                               NO
 OPT|
 OPT| Pressure deviation [bar]                                   2395.1996770655
 OPT| Pressure tolerance [bar]                                    100.0000000000
 OPT| Pressure is converged                                                   NO
 OPT| **************************************************************************
 OPT| Estimated peak process memory after this step [MiB]                    167

 --------------------------
 OPTIMIZATION STEP:      3
 --------------------------

 CELL| Volume [angstrom^3]:                                           313.586912
 CELL| Vector a [angstrom]:       6.516     0.000     0.000   |a| =     6.515975
 CELL| Vector b [angstrom]:       0.000     7.927     0.000   |b| =     7.926751
 CELL| Vector c [angstrom]:       0.000     0.000     6.071   |c| =     6.071323
 CELL| Angle (b,c), alpha [degree]:                                    90.000000
 CELL| Angle (a,c), beta  [degree]:                                    90.000000
 CELL| Angle (a,b), gamma [degree]:                                    90.000000
 CELL| Numerically orthorhombic:                                             YES
 CELL| Periodicity                                                           XYZ

 Extrapolation method: ASPC

 Number of electrons:                                                        136
 Number of occupied orbitals:                                                 68
 Number of molecular orbitals:                                               104

 Number of orbital functions:                                                104
 Number of independent orbital functions:                                    104


 SCF WAVEFUNCTION OPTIMIZATION

  Step     Update method      Time    Convergence         Total energy    Change
  ------------------------------------------------------------------------------
     1 TBLite/Diag 0.40E+00    0.0     0.02848176       -86.3854159859 -8.64E+01
     2 TBLite/Diag 0.40E+00    0.0     0.00530827       -86.3856579865 -2.42E-04
     3 TBLite/Diag 0.40E+00    0.0     0.00294767       -86.3856585251 -5.39E-07
     4 TBLite/Diag 0.40E+00    0.0     0.00130704       -86.3856893607 -3.08E-05
     5 TBLite/Diag 0.40E+00    0.0     0.00002569       -86.3856893852 -2.45E-08
     6 TBLite/Diag 0.40E+00    0.0     0.00002836       -86.3856893985 -1.33E-08
     7 TBLite/Diag 0.40E+00    0.0     0.00000532       -86.3856893987 -2.00E-10
     8 TBLite/Diag 0.40E+00    0.0     0.00000069       -86.3856893987 -3.44E-12
     9 TBLite/Diag 0.40E+00    0.0     0.00000016       -86.3856893987 -1.42E-14
    10 TBLite/Diag 0.40E+00    0.0     0.00000008       -86.3856893987 -1.42E-13
    11 TBLite/Diag 0.40E+00    0.0     0.00000001       -86.3856893987  0.00E+00
    12 TBLite/Diag 0.40E+00    0.0     2.0442E-09       -86.3856893987  7.11E-14
    13 TBLite/Diag 0.40E+00    0.0     9.9060E-10       -86.3856893987 -2.84E-14

  *** SCF run converged in    13 steps ***


  Core Hamiltonian energy:                                    -87.18409344349391
  Repulsive potential energy:                                   0.59472749946570
  Electrostatic energy:                                         0.27512086386710
  Self-consistent dispersion energy:                           -0.08937797127580
  Non-self consistent dispersion energy:                        0.01793365272371
  Correction for halogen bonding:                               0.00000000000000
  Electronic entropic energy:                                  -0.00000000000000
  Fermi energy:                                                -0.34635517950009

  Total energy:                                               -86.38568939871318
  Total energy (extrapolated to T->0):                        -86.38568939871318

 ENERGY| Total FORCE_EVAL ( QS ) energy [hartree]            -86.385689398713183

 OPT| **************************************************************************
 OPT| Step number                                                              3
 OPT| Optimization method                                                   BFGS
 OPT| Total energy [hartree]                                      -86.3856893987
 OPT| Internal pressure [bar]                                    -510.8490191223
 OPT| Effective energy change [hartree]                            -0.0085095695
 OPT| Predicted energy change [hartree]                            -0.0071929008
 OPT| Scaling factor                                                0.0000000000
 OPT| Step size                                                     0.0996681301
 OPT| Trust radius                                                  0.4724315332
 OPT| Decrease in energy                                                     YES
 OPT| Used time [s]                                                        1.747
 OPT|
 OPT| Maximum step size                                             0.0996681301
 OPT| Convergence limit for maximum step size                       0.0030000000
 OPT| Maximum step size is converged                                          NO
 OPT|
 OPT| RMS step size                                                 0.0277915863
 OPT| Convergence limit for RMS step size                           0.0015000000
 OPT| RMS step size is converged                                              NO
 OPT|
 OPT| Maximum gradient                                              0.0094308513
 OPT| Convergence limit for maximum gradient                        0.0004500000
 OPT| Maximum gradient is converged                                           NO
 OPT|
 OPT| RMS gradient                                                  0.0049423274
 OPT| Convergence limit for RMS gradient                            0.0003000000
 OPT| RMS gradient is converged                                               NO
 OPT|
 OPT| Pressure deviation [bar]                                   -510.8490191223
 OPT| Pressure tolerance [bar]                                    100.0000000000
 OPT| Pressure is converged                                                   NO
 OPT| **************************************************************************
 OPT| Estimated peak process memory after this step [MiB]                    167

 --------------------------
 OPTIMIZATION STEP:      4
 --------------------------

 CELL| Volume [angstrom^3]:                                           313.438786
 CELL| Vector a [angstrom]:       6.504     0.000     0.000   |a| =     6.504347
 CELL| Vector b [angstrom]:       0.000     7.948     0.000   |b| =     7.948080
 CELL| Vector c [angstrom]:       0.000     0.000     6.063   |c| =     6.062989
 CELL| Angle (b,c), alpha [degree]:                                    90.000000
 CELL| Angle (a,c), beta  [degree]:                                    90.000000
 CELL| Angle (a,b), gamma [degree]:                                    90.000000
 CELL| Numerically orthorhombic:                                             YES
 CELL| Periodicity                                                           XYZ

 Extrapolation method: ASPC

 Number of electrons:                                                        136
 Number of occupied orbitals:                                                 68
 Number of molecular orbitals:                                               104

 Number of orbital functions:                                                104
 Number of independent orbital functions:                                    104


 SCF WAVEFUNCTION OPTIMIZATION

  Step     Update method      Time    Convergence         Total energy    Change
  ------------------------------------------------------------------------------
     1 TBLite/Diag 0.40E+00    0.0     0.01342500       -86.3882713970 -8.64E+01
     2 TBLite/Diag 0.40E+00    0.0     0.00179775       -86.3883107700 -3.94E-05
     3 TBLite/Diag 0.40E+00    0.0     0.00057681       -86.3883112473 -4.77E-07
     4 TBLite/Diag 0.40E+00    0.0     0.00038486       -86.3883121677 -9.20E-07
     5 TBLite/Diag 0.40E+00    0.0     0.00012705       -86.3883124139 -2.46E-07
     6 TBLite/Diag 0.40E+00    0.0     0.00002941       -86.3883124214 -7.41E-09
     7 TBLite/Diag 0.40E+00    0.0     0.00000237       -86.3883124214 -6.14E-11
     8 TBLite/Diag 0.40E+00    0.0     0.00000061       -86.3883124214 -3.37E-12
     9 TBLite/Diag 0.40E+00    0.0     0.00000025       -86.3883124214 -4.69E-13
    10 TBLite/Diag 0.40E+00    0.0     0.00000001       -86.3883124214  2.84E-14
    11 TBLite/Diag 0.40E+00    0.0     7.2411E-09       -86.3883124214  0.00E+00
    12 TBLite/Diag 0.40E+00    0.0     1.1191E-09       -86.3883124214 -5.68E-14
    13 TBLite/Diag 0.40E+00    0.0     3.0407E-10       -86.3883124214 -2.84E-14

  *** SCF run converged in    13 steps ***


  Core Hamiltonian energy:                                    -87.18706936097969
  Repulsive potential energy:                                   0.59784222095736
  Electrostatic energy:                                         0.27242472711015
  Self-consistent dispersion energy:                           -0.08945045610386
  Non-self consistent dispersion energy:                        0.01794044760033
  Correction for halogen bonding:                               0.00000000000000
  Electronic entropic energy:                                  -0.00000000000000
  Fermi energy:                                                -0.34439259872774

  Total energy:                                               -86.38831242141572
  Total energy (extrapolated to T->0):                        -86.38831242141572

 ENERGY| Total FORCE_EVAL ( QS ) energy [hartree]            -86.388312421415719

 OPT| **************************************************************************
 OPT| Step number                                                              4
 OPT| Optimization method                                                   BFGS
 OPT| Total energy [hartree]                                      -86.3883124214
 OPT| Internal pressure [bar]                                      24.5519183168
 OPT| Effective energy change [hartree]                            -0.0026230227
 OPT| Predicted energy change [hartree]                            -0.0017296541
 OPT| Scaling factor                                                0.0000000000
 OPT| Step size                                                     0.0403072673
 OPT| Trust radius                                                  0.4724315332
 OPT| Decrease in energy                                                     YES
 OPT| Used time [s]                                                        1.753
 OPT|
 OPT| Maximum step size                                             0.0403072673
 OPT| Convergence limit for maximum step size                       0.0030000000
 OPT| Maximum step size is converged                                          NO
 OPT|
 OPT| RMS step size                                                 0.0117787200
 OPT| Convergence limit for RMS step size                           0.0015000000
 OPT| RMS step size is converged                                              NO
 OPT|
 OPT| Maximum gradient                                              0.0064015619
 OPT| Convergence limit for maximum gradient                        0.0004500000
 OPT| Maximum gradient is converged                                           NO
 OPT|
 OPT| RMS gradient                                                  0.0042305010
 OPT| Convergence limit for RMS gradient                            0.0003000000
 OPT| RMS gradient is converged                                               NO
 OPT|
 OPT| Pressure deviation [bar]                                     24.5519183168
 OPT| Pressure tolerance [bar]                                    100.0000000000
 OPT| Pressure is converged                                                  YES
 OPT| **************************************************************************
 OPT| Estimated peak process memory after this step [MiB]                    167

 --------------------------
 OPTIMIZATION STEP:      5
 --------------------------

 CELL| Volume [angstrom^3]:                                           313.272085
 CELL| Vector a [angstrom]:       6.488     0.000     0.000   |a| =     6.488090
 CELL| Vector b [angstrom]:       0.000     7.974     0.000   |b| =     7.974077
 CELL| Vector c [angstrom]:       0.000     0.000     6.055   |c| =     6.055144
 CELL| Angle (b,c), alpha [degree]:                                    90.000000
 CELL| Angle (a,c), beta  [degree]:                                    90.000000
 CELL| Angle (a,b), gamma [degree]:                                    90.000000
 CELL| Numerically orthorhombic:                                             YES
 CELL| Periodicity                                                           XYZ

 Extrapolation method: ASPC

 Number of electrons:                                                        136
 Number of occupied orbitals:                                                 68
 Number of molecular orbitals:                                               104

 Number of orbital functions:                                                104
 Number of independent orbital functions:                                    104


 SCF WAVEFUNCTION OPTIMIZATION

  Step     Update method      Time    Convergence         Total energy    Change
  ------------------------------------------------------------------------------
     1 TBLite/Diag 0.40E+00    0.0     0.02111121       -86.3910432044 -8.64E+01
     2 TBLite/Diag 0.40E+00    0.0     0.00148190       -86.3910586840 -1.55E-05
     3 TBLite/Diag 0.40E+00    0.0     0.00070243       -86.3910601406 -1.46E-06
     4 TBLite/Diag 0.40E+00    0.0     0.00047465       -86.3910625219 -2.38E-06
     5 TBLite/Diag 0.40E+00    0.0     0.00008474       -86.3910626175 -9.56E-08
     6 TBLite/Diag 0.40E+00    0.0     0.00003674       -86.3910626292 -1.16E-08
     7 TBLite/Diag 0.40E+00    0.0     0.00000918       -86.3910626298 -6.68E-10
     8 TBLite/Diag 0.40E+00    0.0     0.00000071       -86.3910626298 -7.13E-12
     9 TBLite/Diag 0.40E+00    0.0     0.00000035       -86.3910626298 -9.09E-13
    10 TBLite/Diag 0.40E+00    0.0     0.00000008       -86.3910626298 -8.53E-14
    11 TBLite/Diag 0.40E+00    0.0     0.00000002       -86.3910626298  1.56E-13
    12 TBLite/Diag 0.40E+00    0.0     1.4769E-09       -86.3910626298 -1.14E-13
    13 TBLite/Diag 0.40E+00    0.0     6.2561E-10       -86.3910626298  4.26E-14

  *** SCF run converged in    13 steps ***


  Core Hamiltonian energy:                                    -87.17610961472639
  Repulsive potential energy:                                   0.58529648109253
  Electrostatic energy:                                         0.27136528459077
  Self-consistent dispersion energy:                           -0.08956329037267
  Non-self consistent dispersion energy:                        0.01794850957786
  Correction for halogen bonding:                               0.00000000000000
  Electronic entropic energy:                                  -0.00000000000000
  Fermi energy:                                                -0.34335219280756

  Total energy:                                               -86.39106262983789
  Total energy (extrapolated to T->0):                        -86.39106262983789

 ENERGY| Total FORCE_EVAL ( QS ) energy [hartree]            -86.391062629837890

 OPT| **************************************************************************
 OPT| Step number                                                              5
 OPT| Optimization method                                                   BFGS
 OPT| Total energy [hartree]                                      -86.3910626298
 OPT| Internal pressure [bar]                                  -11351.8316333945
 OPT| Effective energy change [hartree]                            -0.0027502084
 OPT| Predicted energy change [hartree]                            -0.0022239100
 OPT| Scaling factor                                                0.0000000000
 OPT| Step size                                                     0.0491255158
 OPT| Trust radius                                                  0.4724315332
 OPT| Decrease in energy                                                     YES
 OPT| Used time [s]                                                        1.753
 OPT|
 OPT| Maximum step size                                             0.0491255158
 OPT| Convergence limit for maximum step size                       0.0030000000
 OPT| Maximum step size is converged                                          NO
 OPT|
 OPT| RMS step size                                                 0.0173333175
 OPT| Convergence limit for RMS step size                           0.0015000000
 OPT| RMS step size is converged                                              NO
 OPT|
 OPT| Maximum gradient                                              0.0114004970
 OPT| Convergence limit for maximum gradient                        0.0004500000
 OPT| Maximum gradient is converged                                           NO
 OPT|
 OPT| RMS gradient                                                  0.0025944402
 OPT| Convergence limit for RMS gradient                            0.0003000000
 OPT| RMS gradient is converged                                               NO
 OPT|
 OPT| Pressure deviation [bar]                                 -11351.8316333945
 OPT| Pressure tolerance [bar]                                    100.0000000000
 OPT| Pressure is converged                                                   NO
 OPT| **************************************************************************
 OPT| Estimated peak process memory after this step [MiB]                    168

 --------------------------
 OPTIMIZATION STEP:      6
 --------------------------

 CELL| Volume [angstrom^3]:                                           312.659887
 CELL| Vector a [angstrom]:       6.480     0.000     0.000   |a| =     6.480329
 CELL| Vector b [angstrom]:       0.000     7.973     0.000   |b| =     7.972981
 CELL| Vector c [angstrom]:       0.000     0.000     6.051   |c| =     6.051379
 CELL| Angle (b,c), alpha [degree]:                                    90.000000
 CELL| Angle (a,c), beta  [degree]:                                    90.000000
 CELL| Angle (a,b), gamma [degree]:                                    90.000000
 CELL| Numerically orthorhombic:                                             YES
 CELL| Periodicity                                                           XYZ

 Extrapolation method: ASPC

 Number of electrons:                                                        136
 Number of occupied orbitals:                                                 68
 Number of molecular orbitals:                                               104

 Number of orbital functions:                                                104
 Number of independent orbital functions:                                    104


 SCF WAVEFUNCTION OPTIMIZATION

  Step     Update method      Time    Convergence         Total energy    Change
  ------------------------------------------------------------------------------
     1 TBLite/Diag 0.40E+00    0.0     0.00843356       -86.3920161975 -8.64E+01
     2 TBLite/Diag 0.40E+00    0.0     0.00051264       -86.3920187401 -2.54E-06
     3 TBLite/Diag 0.40E+00    0.0     0.00035690       -86.3920187683 -2.82E-08
     4 TBLite/Diag 0.40E+00    0.0     0.00019236       -86.3920193257 -5.57E-07
     5 TBLite/Diag 0.40E+00    0.0     0.00002649       -86.3920193307 -5.00E-09
     6 TBLite/Diag 0.40E+00    0.0     0.00001435       -86.3920193330 -2.34E-09
     7 TBLite/Diag 0.40E+00    0.0     0.00000297       -86.3920193331 -6.92E-11
     8 TBLite/Diag 0.40E+00    0.0     0.00000028       -86.3920193331 -1.34E-12
     9 TBLite/Diag 0.40E+00    0.0     0.00000007       -86.3920193331  5.68E-14
    10 TBLite/Diag 0.40E+00    0.0     0.00000002       -86.3920193331  2.84E-14
    11 TBLite/Diag 0.40E+00    0.0     0.00000001       -86.3920193331 -1.28E-13
    12 TBLite/Diag 0.40E+00    0.0     1.4201E-09       -86.3920193331  1.42E-14
    13 TBLite/Diag 0.40E+00    0.0     2.1362E-10       -86.3920193331  1.42E-13

  *** SCF run converged in    13 steps ***


  Core Hamiltonian energy:                                    -87.17555006645367
  Repulsive potential energy:                                   0.58485201656257
  Electrostatic energy:                                         0.27043789523300
  Self-consistent dispersion energy:                           -0.08977282868622
  Non-self consistent dispersion energy:                        0.01801365025667
  Correction for halogen bonding:                               0.00000000000000
  Electronic entropic energy:                                  -0.00000000000000
  Fermi energy:                                                -0.34195083335328

  Total energy:                                               -86.39201933308765
  Total energy (extrapolated to T->0):                        -86.39201933308765

 ENERGY| Total FORCE_EVAL ( QS ) energy [hartree]            -86.392019333087646

 OPT| **************************************************************************
 OPT| Step number                                                              6
 OPT| Optimization method                                                   BFGS
 OPT| Total energy [hartree]                                      -86.3920193331
 OPT| Internal pressure [bar]                                  -13203.9309511887
 OPT| Effective energy change [hartree]                            -0.0009567032
 OPT| Predicted energy change [hartree]                            -0.0006643077
 OPT| Scaling factor                                                0.0000000000
 OPT| Step size                                                     0.0146647009
 OPT| Trust radius                                                  0.4724315332
 OPT| Decrease in energy                                                     YES
 OPT| Used time [s]                                                        1.762
 OPT|
 OPT| Maximum step size                                             0.0146647009
 OPT| Convergence limit for maximum step size                       0.0030000000
 OPT| Maximum step size is converged                                          NO
 OPT|
 OPT| RMS step size                                                 0.0069346779
 OPT| Convergence limit for RMS step size                           0.0015000000
 OPT| RMS step size is converged                                              NO
 OPT|
 OPT| Maximum gradient                                              0.0126436822
 OPT| Convergence limit for maximum gradient                        0.0004500000
 OPT| Maximum gradient is converged                                           NO
 OPT|
 OPT| RMS gradient                                                  0.0022590991
 OPT| Convergence limit for RMS gradient                            0.0003000000
 OPT| RMS gradient is converged                                               NO
 OPT|
 OPT| Pressure deviation [bar]                                 -13203.9309511887
 OPT| Pressure tolerance [bar]                                    100.0000000000
 OPT| Pressure is converged                                                   NO
 OPT| **************************************************************************
 OPT| Estimated peak process memory after this step [MiB]                    168

 --------------------------
 OPTIMIZATION STEP:      7
 --------------------------

 CELL| Volume [angstrom^3]:                                           311.343849
 CELL| Vector a [angstrom]:       6.468     0.000     0.000   |a| =     6.468479
 CELL| Vector b [angstrom]:       0.000     7.963     0.000   |b| =     7.962686
 CELL| Vector c [angstrom]:       0.000     0.000     6.045   |c| =     6.044752
 CELL| Angle (b,c), alpha [degree]:                                    90.000000
 CELL| Angle (a,c), beta  [degree]:                                    90.000000
 CELL| Angle (a,b), gamma [degree]:                                    90.000000
 CELL| Numerically orthorhombic:                                             YES
 CELL| Periodicity                                                           XYZ

 Extrapolation method: ASPC

 Number of electrons:                                                        136
 Number of occupied orbitals:                                                 68
 Number of molecular orbitals:                                               104

 Number of orbital functions:                                                104
 Number of independent orbital functions:                                    104


 SCF WAVEFUNCTION OPTIMIZATION

  Step     Update method      Time    Convergence         Total energy    Change
  ------------------------------------------------------------------------------
     1 TBLite/Diag 0.40E+00    0.0     0.01066466       -86.3930119495 -8.64E+01
     2 TBLite/Diag 0.40E+00    0.0     0.00062207       -86.3930157568 -3.81E-06
     3 TBLite/Diag 0.40E+00    0.0     0.00018761       -86.3930160954 -3.39E-07
     4 TBLite/Diag 0.40E+00    0.0     0.00008904       -86.3930161430 -4.76E-08
     5 TBLite/Diag 0.40E+00    0.0     0.00003347       -86.3930161533 -1.03E-08
     6 TBLite/Diag 0.40E+00    0.0     0.00001053       -86.3930161547 -1.34E-09
     7 TBLite/Diag 0.40E+00    0.0     0.00000254       -86.3930161547 -3.78E-11
     8 TBLite/Diag 0.40E+00    0.0     0.00000009       -86.3930161547 -2.84E-13
     9 TBLite/Diag 0.40E+00    0.0     0.00000008       -86.3930161547 -4.26E-14
    10 TBLite/Diag 0.40E+00    0.0     0.00000003       -86.3930161547  1.71E-13
    11 TBLite/Diag 0.40E+00    0.0     6.9893E-09       -86.3930161547 -1.99E-13
    12 TBLite/Diag 0.40E+00    0.0     5.8804E-10       -86.3930161547  9.95E-14

  *** SCF run converged in    12 steps ***


  Core Hamiltonian energy:                                    -87.17298976183396
  Repulsive potential energy:                                   0.58167614886743
  Electrostatic energy:                                         0.27033605522617
  Self-consistent dispersion energy:                           -0.09019856981304
  Non-self consistent dispersion energy:                        0.01815997286477
  Correction for halogen bonding:                               0.00000000000000
  Electronic entropic energy:                                  -0.00000000000000
  Fermi energy:                                                -0.34121232138936

  Total energy:                                               -86.39301615468864
  Total energy (extrapolated to T->0):                        -86.39301615468864

 ENERGY| Total FORCE_EVAL ( QS ) energy [hartree]            -86.393016154688638

 OPT| **************************************************************************
 OPT| Step number                                                              7
 OPT| Optimization method                                                   BFGS
 OPT| Total energy [hartree]                                      -86.3930161547
 OPT| Internal pressure [bar]                                  -15546.6417324224
 OPT| Effective energy change [hartree]                            -0.0009968216
 OPT| Predicted energy change [hartree]                            -0.0006645185
 OPT| Scaling factor                                                0.0000000000
 OPT| Step size                                                     0.0223930174
 OPT| Trust radius                                                  0.4724315332
 OPT| Decrease in energy                                                     YES
 OPT| Used time [s]                                                        1.754
 OPT|
 OPT| Maximum step size                                             0.0223930174
 OPT| Convergence limit for maximum step size                       0.0030000000
 OPT| Maximum step size is converged                                          NO
 OPT|
 OPT| RMS step size                                                 0.0086925759
 OPT| Convergence limit for RMS step size                           0.0015000000
 OPT| RMS step size is converged                                              NO
 OPT|
 OPT| Maximum gradient                                              0.0118342440
 OPT| Convergence limit for maximum gradient                        0.0004500000
 OPT| Maximum gradient is converged                                           NO
 OPT|
 OPT| RMS gradient                                                  0.0023292456
 OPT| Convergence limit for RMS gradient                            0.0003000000
 OPT| RMS gradient is converged                                               NO
 OPT|
 OPT| Pressure deviation [bar]                                 -15546.6417324224
 OPT| Pressure tolerance [bar]                                    100.0000000000
 OPT| Pressure is converged                                                   NO
 OPT| **************************************************************************
 OPT| Estimated peak process memory after this step [MiB]                    168

 --------------------------
 OPTIMIZATION STEP:      8
 --------------------------

 CELL| Volume [angstrom^3]:                                           308.798448
 CELL| Vector a [angstrom]:       6.448     0.000     0.000   |a| =     6.448123
 CELL| Vector b [angstrom]:       0.000     7.941     0.000   |b| =     7.941028
 CELL| Vector c [angstrom]:       0.000     0.000     6.031   |c| =     6.030664
 CELL| Angle (b,c), alpha [degree]:                                    90.000000
 CELL| Angle (a,c), beta  [degree]:                                    90.000000
 CELL| Angle (a,b), gamma [degree]:                                    90.000000
 CELL| Numerically orthorhombic:                                             YES
 CELL| Periodicity                                                           XYZ

 Extrapolation method: ASPC

 Number of electrons:                                                        136
 Number of occupied orbitals:                                                 68
 Number of molecular orbitals:                                               104

 Number of orbital functions:                                                104
 Number of independent orbital functions:                                    104


 SCF WAVEFUNCTION OPTIMIZATION

  Step     Update method      Time    Convergence         Total energy    Change
  ------------------------------------------------------------------------------
     1 TBLite/Diag 0.40E+00    0.0     0.01487926       -86.3941689660 -8.64E+01
     2 TBLite/Diag 0.40E+00    0.0     0.00118599       -86.3941764527 -7.49E-06
     3 TBLite/Diag 0.40E+00    0.0     0.00045835       -86.3941762486  2.04E-07
     4 TBLite/Diag 0.40E+00    0.0     0.00031511       -86.3941774133 -1.16E-06
     5 TBLite/Diag 0.40E+00    0.0     0.00003038       -86.3941774291 -1.58E-08
     6 TBLite/Diag 0.40E+00    0.0     0.00001353       -86.3941774312 -2.03E-09
     7 TBLite/Diag 0.40E+00    0.0     0.00000269       -86.3941774313 -1.02E-10
     8 TBLite/Diag 0.40E+00    0.0     0.00000029       -86.3941774313 -8.38E-13
     9 TBLite/Diag 0.40E+00    0.0     0.00000018       -86.3941774313 -2.70E-13
    10 TBLite/Diag 0.40E+00    0.0     0.00000005       -86.3941774313  1.42E-14
    11 TBLite/Diag 0.40E+00    0.0     6.3523E-09       -86.3941774313 -5.68E-14
    12 TBLite/Diag 0.40E+00    0.0     5.7421E-10       -86.3941774313  1.42E-13

  *** SCF run converged in    12 steps ***


  Core Hamiltonian energy:                                    -87.17156691708058
  Repulsive potential energy:                                   0.57963093869893
  Electrostatic energy:                                         0.27031757036240
  Self-consistent dispersion energy:                           -0.09100730315147
  Non-self consistent dispersion energy:                        0.01844827990115
  Correction for halogen bonding:                               0.00000000000000
  Electronic entropic energy:                                  -0.00000000000000
  Fermi energy:                                                -0.34077627106924

  Total energy:                                               -86.39417743126958
  Total energy (extrapolated to T->0):                        -86.39417743126958

 ENERGY| Total FORCE_EVAL ( QS ) energy [hartree]            -86.394177431269583

 OPT| **************************************************************************
 OPT| Step number                                                              8
 OPT| Optimization method                                                   BFGS
 OPT| Total energy [hartree]                                      -86.3941774313
 OPT| Internal pressure [bar]                                  -15244.1857625471
 OPT| Effective energy change [hartree]                            -0.0011612766
 OPT| Predicted energy change [hartree]                            -0.0007952967
 OPT| Scaling factor                                                0.0000000000
 OPT| Step size                                                     0.0409284103
 OPT| Trust radius                                                  0.4724315332
 OPT| Decrease in energy                                                     YES
 OPT| Used time [s]                                                        1.776
 OPT|
 OPT| Maximum step size                                             0.0409284103
 OPT| Convergence limit for maximum step size                       0.0030000000
 OPT| Maximum step size is converged                                          NO
 OPT|
 OPT| RMS step size                                                 0.0124127477
 OPT| Convergence limit for RMS step size                           0.0015000000
 OPT| RMS step size is converged                                              NO
 OPT|
 OPT| Maximum gradient                                              0.0094319315
 OPT| Convergence limit for maximum gradient                        0.0004500000
 OPT| Maximum gradient is converged                                           NO
 OPT|
 OPT| RMS gradient                                                  0.0023637969
 OPT| Convergence limit for RMS gradient                            0.0003000000
 OPT| RMS gradient is converged                                               NO
 OPT|
 OPT| Pressure deviation [bar]                                 -15244.1857625471
 OPT| Pressure tolerance [bar]                                    100.0000000000
 OPT| Pressure is converged                                                   NO
 OPT| **************************************************************************
 OPT| Estimated peak process memory after this step [MiB]                    168

 --------------------------
 OPTIMIZATION STEP:      9
 --------------------------

 CELL| Volume [angstrom^3]:                                           305.708924
 CELL| Vector a [angstrom]:       6.424     0.000     0.000   |a| =     6.424260
 CELL| Vector b [angstrom]:       0.000     7.916     0.000   |b| =     7.916094
 CELL| Vector c [angstrom]:       0.000     0.000     6.011   |c| =     6.011378
 CELL| Angle (b,c), alpha [degree]:                                    90.000000
 CELL| Angle (a,c), beta  [degree]:                                    90.000000
 CELL| Angle (a,b), gamma [degree]:                                    90.000000
 CELL| Numerically orthorhombic:                                             YES
 CELL| Periodicity                                                           XYZ

 Extrapolation method: ASPC

 Number of electrons:                                                        136
 Number of occupied orbitals:                                                 68
 Number of molecular orbitals:                                               104

 Number of orbital functions:                                                104
 Number of independent orbital functions:                                    104


 SCF WAVEFUNCTION OPTIMIZATION

  Step     Update method      Time    Convergence         Total energy    Change
  ------------------------------------------------------------------------------
     1 TBLite/Diag 0.40E+00    0.0     0.01395268       -86.3950834399 -8.64E+01
     2 TBLite/Diag 0.40E+00    0.0     0.00173017       -86.3951023320 -1.89E-05
     3 TBLite/Diag 0.40E+00    0.0     0.00063933       -86.3951036414 -1.31E-06
     4 TBLite/Diag 0.40E+00    0.0     0.00028204       -86.3951046739 -1.03E-06
     5 TBLite/Diag 0.40E+00    0.0     0.00001478       -86.3951046802 -6.32E-09
     6 TBLite/Diag 0.40E+00    0.0     0.00001778       -86.3951046827 -2.48E-09
     7 TBLite/Diag 0.40E+00    0.0     0.00000261       -86.3951046827 -7.34E-11
     8 TBLite/Diag 0.40E+00    0.0     0.00000016       -86.3951046827 -9.95E-14
     9 TBLite/Diag 0.40E+00    0.0     0.00000012       -86.3951046827 -4.26E-14
    10 TBLite/Diag 0.40E+00    0.0     0.00000005       -86.3951046827 -1.42E-14
    11 TBLite/Diag 0.40E+00    0.0     5.3269E-09       -86.3951046827  2.84E-14
    12 TBLite/Diag 0.40E+00    0.0     9.2489E-10       -86.3951046827 -8.53E-14

  *** SCF run converged in    12 steps ***


  Core Hamiltonian energy:                                    -87.17175834055691
  Repulsive potential energy:                                   0.57932972087656
  Electrostatic energy:                                         0.27049380895156
  Self-consistent dispersion energy:                           -0.09199173676986
  Non-self consistent dispersion energy:                        0.01882186475531
  Correction for halogen bonding:                               0.00000000000000
  Electronic entropic energy:                                  -0.00000000000000
  Fermi energy:                                                -0.34117020387858

  Total energy:                                               -86.39510468274334
  Total energy (extrapolated to T->0):                        -86.39510468274334

 ENERGY| Total FORCE_EVAL ( QS ) energy [hartree]            -86.395104682743337

 OPT| **************************************************************************
 OPT| Step number                                                              9
 OPT| Optimization method                                                   BFGS
 OPT| Total energy [hartree]                                      -86.3951046827
 OPT| Internal pressure [bar]                                  -12115.4430426106
 OPT| Effective energy change [hartree]                            -0.0009272515
 OPT| Predicted energy change [hartree]                            -0.0006584109
 OPT| Scaling factor                                                0.0000000000
 OPT| Step size                                                     0.0471173580
 OPT| Trust radius                                                  0.4724315332
 OPT| Decrease in energy                                                     YES
 OPT| Used time [s]                                                        1.786
 OPT|
 OPT| Maximum step size                                             0.0471173580
 OPT| Convergence limit for maximum step size                       0.0030000000
 OPT| Maximum step size is converged                                          NO
 OPT|
 OPT| RMS step size                                                 0.0122918929
 OPT| Convergence limit for RMS step size                           0.0015000000
 OPT| RMS step size is converged                                              NO
 OPT|
 OPT| Maximum gradient                                              0.0099408678
 OPT| Convergence limit for maximum gradient                        0.0004500000
 OPT| Maximum gradient is converged                                           NO
 OPT|
 OPT| RMS gradient                                                  0.0019895613
 OPT| Convergence limit for RMS gradient                            0.0003000000
 OPT| RMS gradient is converged                                               NO
 OPT|
 OPT| Pressure deviation [bar]                                 -12115.4430426106
 OPT| Pressure tolerance [bar]                                    100.0000000000
 OPT| Pressure is converged                                                   NO
 OPT| **************************************************************************
 OPT| Estimated peak process memory after this step [MiB]                    168

 --------------------------
 OPTIMIZATION STEP:     10
 --------------------------

 CELL| Volume [angstrom^3]:                                           303.009891
 CELL| Vector a [angstrom]:       6.404     0.000     0.000   |a| =     6.403509
 CELL| Vector b [angstrom]:       0.000     7.897     0.000   |b| =     7.896842
 CELL| Vector c [angstrom]:       0.000     0.000     5.992   |c| =     5.992187
 CELL| Angle (b,c), alpha [degree]:                                    90.000000
 CELL| Angle (a,c), beta  [degree]:                                    90.000000
 CELL| Angle (a,b), gamma [degree]:                                    90.000000
 CELL| Numerically orthorhombic:                                             YES
 CELL| Periodicity                                                           XYZ

 Extrapolation method: ASPC

 Number of electrons:                                                        136
 Number of occupied orbitals:                                                 68
 Number of molecular orbitals:                                               104

 Number of orbital functions:                                                104
 Number of independent orbital functions:                                    104


 SCF WAVEFUNCTION OPTIMIZATION

  Step     Update method      Time    Convergence         Total energy    Change
  ------------------------------------------------------------------------------
     1 TBLite/Diag 0.40E+00    0.0     0.00845327       -86.3956781596 -8.64E+01
     2 TBLite/Diag 0.40E+00    0.0     0.00152643       -86.3956961313 -1.80E-05
     3 TBLite/Diag 0.40E+00    0.0     0.00048013       -86.3956981592 -2.03E-06
     4 TBLite/Diag 0.40E+00    0.0     0.00009091       -86.3956983359 -1.77E-07
     5 TBLite/Diag 0.40E+00    0.0     0.00001032       -86.3956983375 -1.53E-09
     6 TBLite/Diag 0.40E+00    0.0     0.00000990       -86.3956983381 -6.59E-10
     7 TBLite/Diag 0.40E+00    0.0     0.00000109       -86.3956983381 -1.69E-11
     8 TBLite/Diag 0.40E+00    0.0     0.00000017       -86.3956983381 -6.25E-13
     9 TBLite/Diag 0.40E+00    0.0     0.00000011       -86.3956983381 -1.42E-13
    10 TBLite/Diag 0.40E+00    0.0     0.00000004       -86.3956983381  5.68E-14
    11 TBLite/Diag 0.40E+00    0.0     3.0840E-09       -86.3956983381  0.00E+00
    12 TBLite/Diag 0.40E+00    0.0     5.0398E-10       -86.3956983381 -4.26E-14

  *** SCF run converged in    12 steps ***


  Core Hamiltonian energy:                                    -87.17411844358550
  Repulsive potential energy:                                   0.58155304509115
  Electrostatic energy:                                         0.27057040587841
  Self-consistent dispersion energy:                           -0.09286048678091
  Non-self consistent dispersion energy:                        0.01915714125173
  Correction for halogen bonding:                               0.00000000000000
  Electronic entropic energy:                                  -0.00000000000000
  Fermi energy:                                                -0.34200253918639

  Total energy:                                               -86.39569833814511
  Total energy (extrapolated to T->0):                        -86.39569833814511

 ENERGY| Total FORCE_EVAL ( QS ) energy [hartree]            -86.395698338145110

 OPT| **************************************************************************
 OPT| Step number                                                             10
 OPT| Optimization method                                                   BFGS
 OPT| Total energy [hartree]                                      -86.3956983381
 OPT| Internal pressure [bar]                                   -7239.7423861376
 OPT| Effective energy change [hartree]                            -0.0005936554
 OPT| Predicted energy change [hartree]                            -0.0004293143
 OPT| Scaling factor                                                0.0000000000
 OPT| Step size                                                     0.0392146081
 OPT| Trust radius                                                  0.4724315332
 OPT| Decrease in energy                                                     YES
 OPT| Used time [s]                                                        1.815
 OPT|
 OPT| Maximum step size                                             0.0392146081
 OPT| Convergence limit for maximum step size                       0.0030000000
 OPT| Maximum step size is converged                                          NO
 OPT|
 OPT| RMS step size                                                 0.0088978536
 OPT| Convergence limit for RMS step size                           0.0015000000
 OPT| RMS step size is converged                                              NO
 OPT|
 OPT| Maximum gradient                                              0.0075608163
 OPT| Convergence limit for maximum gradient                        0.0004500000
 OPT| Maximum gradient is converged                                           NO
 OPT|
 OPT| RMS gradient                                                  0.0015726905
 OPT| Convergence limit for RMS gradient                            0.0003000000
 OPT| RMS gradient is converged                                               NO
 OPT|
 OPT| Pressure deviation [bar]                                  -7239.7423861376
 OPT| Pressure tolerance [bar]                                    100.0000000000
 OPT| Pressure is converged                                                   NO
 OPT| **************************************************************************
 OPT| Estimated peak process memory after this step [MiB]                    168

 --------------------------
 OPTIMIZATION STEP:     11
 --------------------------

 CELL| Volume [angstrom^3]:                                           300.818356
 CELL| Vector a [angstrom]:       6.386     0.000     0.000   |a| =     6.385693
 CELL| Vector b [angstrom]:       0.000     7.885     0.000   |b| =     7.884820
 CELL| Vector c [angstrom]:       0.000     0.000     5.975   |c| =     5.974541
 CELL| Angle (b,c), alpha [degree]:                                    90.000000
 CELL| Angle (a,c), beta  [degree]:                                    90.000000
 CELL| Angle (a,b), gamma [degree]:                                    90.000000
 CELL| Numerically orthorhombic:                                             YES
 CELL| Periodicity                                                           XYZ

 Extrapolation method: ASPC

 Number of electrons:                                                        136
 Number of occupied orbitals:                                                 68
 Number of molecular orbitals:                                               104

 Number of orbital functions:                                                104
 Number of independent orbital functions:                                    104


 SCF WAVEFUNCTION OPTIMIZATION

  Step     Update method      Time    Convergence         Total energy    Change
  ------------------------------------------------------------------------------
     1 TBLite/Diag 0.40E+00    0.0     0.00434368       -86.3961040893 -8.64E+01
     2 TBLite/Diag 0.40E+00    0.0     0.00117346       -86.3961150543 -1.10E-05
     3 TBLite/Diag 0.40E+00    0.0     0.00036688       -86.3961162808 -1.23E-06
     4 TBLite/Diag 0.40E+00    0.0     0.00007770       -86.3961163661 -8.53E-08
     5 TBLite/Diag 0.40E+00    0.0     0.00000576       -86.3961163662 -1.65E-10
     6 TBLite/Diag 0.40E+00    0.0     0.00000282       -86.3961163664 -2.08E-10
     7 TBLite/Diag 0.40E+00    0.0     0.00000037       -86.3961163664 -1.04E-12
     8 TBLite/Diag 0.40E+00    0.0     0.00000006       -86.3961163664 -8.53E-14
     9 TBLite/Diag 0.40E+00    0.0     0.00000005       -86.3961163664  0.00E+00
    10 TBLite/Diag 0.40E+00    0.0     0.00000002       -86.3961163664  0.00E+00
    11 TBLite/Diag 0.40E+00    0.0     1.2997E-09       -86.3961163664 -5.68E-14
    12 TBLite/Diag 0.40E+00    0.0     5.3822E-10       -86.3961163664  1.42E-14

  *** SCF run converged in    12 steps ***


  Core Hamiltonian energy:                                    -87.17695151517241
  Repulsive potential energy:                                   0.58452509730546
  Electrostatic energy:                                         0.27045643298516
  Self-consistent dispersion energy:                           -0.09357787056393
  Non-self consistent dispersion energy:                        0.01943148899615
  Correction for halogen bonding:                               0.00000000000000
  Electronic entropic energy:                                  -0.00000000000000
  Fermi energy:                                                -0.34272122029499

  Total energy:                                               -86.39611636644958
  Total energy (extrapolated to T->0):                        -86.39611636644958

 ENERGY| Total FORCE_EVAL ( QS ) energy [hartree]            -86.396116366449576

 OPT| **************************************************************************
 OPT| Step number                                                             11
 OPT| Optimization method                                                   BFGS
 OPT| Total energy [hartree]                                      -86.3961163664
 OPT| Internal pressure [bar]                                   -2720.7904725145
 OPT| Effective energy change [hartree]                            -0.0004180283
 OPT| Predicted energy change [hartree]                            -0.0002863711
 OPT| Scaling factor                                                0.0000000000
 OPT| Step size                                                     0.0336674924
 OPT| Trust radius                                                  0.4724315332
 OPT| Decrease in energy                                                     YES
 OPT| Used time [s]                                                        1.821
 OPT|
 OPT| Maximum step size                                             0.0336674924
 OPT| Convergence limit for maximum step size                       0.0030000000
 OPT| Maximum step size is converged                                          NO
 OPT|
 OPT| RMS step size                                                 0.0065862815
 OPT| Convergence limit for RMS step size                           0.0015000000
 OPT| RMS step size is converged                                              NO
 OPT|
 OPT| Maximum gradient                                              0.0043258901
 OPT| Convergence limit for maximum gradient                        0.0004500000
 OPT| Maximum gradient is converged                                           NO
 OPT|
 OPT| RMS gradient                                                  0.0015396310
 OPT| Convergence limit for RMS gradient                            0.0003000000
 OPT| RMS gradient is converged                                               NO
 OPT|
 OPT| Pressure deviation [bar]                                  -2720.7904725145
 OPT| Pressure tolerance [bar]                                    100.0000000000
 OPT| Pressure is converged                                                   NO
 OPT| **************************************************************************
 OPT| Estimated peak process memory after this step [MiB]                    168

 --------------------------
 OPTIMIZATION STEP:     12
 --------------------------

 CELL| Volume [angstrom^3]:                                           298.148011
 CELL| Vector a [angstrom]:       6.362     0.000     0.000   |a| =     6.362194
 CELL| Vector b [angstrom]:       0.000     7.874     0.000   |b| =     7.873706
 CELL| Vector c [angstrom]:       0.000     0.000     5.952   |c| =     5.951766
 CELL| Angle (b,c), alpha [degree]:                                    90.000000
 CELL| Angle (a,c), beta  [degree]:                                    90.000000
 CELL| Angle (a,b), gamma [degree]:                                    90.000000
 CELL| Numerically orthorhombic:                                             YES
 CELL| Periodicity                                                           XYZ

 Extrapolation method: ASPC

 Number of electrons:                                                        136
 Number of occupied orbitals:                                                 68
 Number of molecular orbitals:                                               104

 Number of orbital functions:                                                104
 Number of independent orbital functions:                                    104


 SCF WAVEFUNCTION OPTIMIZATION

  Step     Update method      Time    Convergence         Total energy    Change
  ------------------------------------------------------------------------------
     1 TBLite/Diag 0.40E+00    0.0     0.00458548       -86.3965784417 -8.64E+01
     2 TBLite/Diag 0.40E+00    0.0     0.00131623       -86.3965903380 -1.19E-05
[...]

 --------------------------
 OPTIMIZATION STEP:     50
 --------------------------

 CELL| Volume [angstrom^3]:                                           280.411844
 CELL| Vector a [angstrom]:       6.432     0.000     0.000   |a| =     6.432001
 CELL| Vector b [angstrom]:       0.000     7.516     0.000   |b| =     7.515535
 CELL| Vector c [angstrom]:      -0.000    -0.000     5.801   |c| =     5.800833
 CELL| Angle (b,c), alpha [degree]:                                    90.000000
 CELL| Angle (a,c), beta  [degree]:                                    90.000000
 CELL| Angle (a,b), gamma [degree]:                                    90.000000
 CELL| Numerically orthorhombic:                                              NO
 CELL| Periodicity                                                           XYZ

 Extrapolation method: ASPC

 Number of electrons:                                                        136
 Number of occupied orbitals:                                                 68
 Number of molecular orbitals:                                               104

 Number of orbital functions:                                                104
 Number of independent orbital functions:                                    104


 SCF WAVEFUNCTION OPTIMIZATION

  Step     Update method      Time    Convergence         Total energy    Change
  ------------------------------------------------------------------------------
     1 TBLite/Diag 0.40E+00    0.0     0.00037375       -86.4035781164 -8.64E+01
     2 TBLite/Diag 0.40E+00    0.0     0.00008623       -86.4035781513 -3.49E-08
     3 TBLite/Diag 0.40E+00    0.0     0.00001065       -86.4035781521 -8.38E-10
     4 TBLite/Diag 0.40E+00    0.0     0.00000431       -86.4035781522 -3.50E-11
     5 TBLite/Diag 0.40E+00    0.0     0.00000244       -86.4035781522 -5.56E-11
     6 TBLite/Diag 0.40E+00    0.0     0.00000034       -86.4035781522 -1.25E-12
     7 TBLite/Diag 0.40E+00    0.0     0.00000014       -86.4035781522 -2.56E-13
     8 TBLite/Diag 0.40E+00    0.0     0.00000008       -86.4035781522 -4.26E-14
     9 TBLite/Diag 0.40E+00    0.0     0.00000002       -86.4035781522  8.53E-14
    10 TBLite/Diag 0.40E+00    0.0     0.00000001       -86.4035781522 -8.53E-14
    11 TBLite/Diag 0.40E+00    0.0     4.4523E-09       -86.4035781522 -2.84E-14
    12 TBLite/Diag 0.40E+00    0.0     1.9818E-10       -86.4035781522  5.68E-14

  *** SCF run converged in    12 steps ***


  Core Hamiltonian energy:                                    -87.17246145571588
  Repulsive potential energy:                                   0.57660202024628
  Electrostatic energy:                                         0.27105806299253
  Self-consistent dispersion energy:                           -0.10103430697708
  Non-self consistent dispersion energy:                        0.02225752722872
  Correction for halogen bonding:                               0.00000000000000
  Electronic entropic energy:                                  -0.00000000000000
  Fermi energy:                                                -0.34414600924599

  Total energy:                                               -86.40357815222542
  Total energy (extrapolated to T->0):                        -86.40357815222542

 ENERGY| Total FORCE_EVAL ( QS ) energy [hartree]            -86.403578152225421

 OPT| **************************************************************************
 OPT| Step number                                                             50
 OPT| Optimization method                                                   BFGS
 OPT| Total energy [hartree]                                      -86.4035781522
 OPT| Internal pressure [bar]                                       9.9660395041
 OPT| Effective energy change [hartree]                            -0.0000002346
 OPT| Predicted energy change [hartree]                            -0.0000002068
 OPT| Scaling factor                                                0.0000000000
 OPT| Step size                                                     0.0020982452
 OPT| Trust radius                                                  0.4724315332
 OPT| Decrease in energy                                                      NO
 OPT| Used time [s]                                                        1.965
 OPT|
 OPT| Maximum step size                                             0.0020982452
 OPT| Convergence limit for maximum step size                       0.0030000000
 OPT| Maximum step size is converged                                         YES
 OPT|
 OPT| RMS step size                                                 0.0003540156
 OPT| Convergence limit for RMS step size                           0.0015000000
 OPT| RMS step size is converged                                             YES
 OPT|
 OPT| Maximum gradient                                              0.0001599203
 OPT| Convergence limit for maximum gradient                        0.0004500000
 OPT| Maximum gradient is converged                                          YES
 OPT|
 OPT| RMS gradient                                                  0.0000359601
 OPT| Convergence limit for RMS gradient                            0.0003000000
 OPT| RMS gradient is converged                                              YES
 OPT|
 OPT| Pressure deviation [bar]                                      9.9660395041
 OPT| Pressure tolerance [bar]                                    100.0000000000
 OPT| Pressure is converged                                                  YES
 OPT| **************************************************************************
 OPT| Estimated peak process memory after this step [MiB]                    168

 *******************************************************************************
 ***                    GEOMETRY OPTIMIZATION COMPLETED                      ***
 *******************************************************************************

 write_final_structure: Optimization converged, writing XYZ file gladly:
  oxalic_acid_alpha_GFN2_gamma_cell_opt-FINAL-1_50.xyz

 write_final_structure: Optimization converged, writing CIF file gladly:
  oxalic_acid_alpha_GFN2_gamma_cell_opt-FINAL-1_50.cif

 write_final_structure: Done!

                    Reevaluating energy at the minimum

 CELL| Volume [angstrom^3]:                                           280.411844
 CELL| Vector a [angstrom]:       6.432     0.000     0.000   |a| =     6.432001
 CELL| Vector b [angstrom]:       0.000     7.516     0.000   |b| =     7.515535
 CELL| Vector c [angstrom]:      -0.000    -0.000     5.801   |c| =     5.800833
 CELL| Angle (b,c), alpha [degree]:                                    90.000000
 CELL| Angle (a,c), beta  [degree]:                                    90.000000
 CELL| Angle (a,b), gamma [degree]:                                    90.000000
 CELL| Numerically orthorhombic:                                              NO
 CELL| Periodicity                                                           XYZ

 Extrapolation method: ASPC

 Number of electrons:                                                        136
 Number of occupied orbitals:                                                 68
 Number of molecular orbitals:                                               104

 Number of orbital functions:                                                104
 Number of independent orbital functions:                                    104


 SCF WAVEFUNCTION OPTIMIZATION

  Step     Update method      Time    Convergence         Total energy    Change
  ------------------------------------------------------------------------------
     1 TBLite/Diag 0.40E+00    0.0     2.3933E-11       -86.4035781522 -8.64E+01

  *** SCF run converged in     1 steps ***


  Core Hamiltonian energy:                                    -87.17246145573280
  Repulsive potential energy:                                   0.57660202024628
  Electrostatic energy:                                         0.27105806300949
  Self-consistent dispersion energy:                           -0.10103430697713
  Non-self consistent dispersion energy:                        0.02225752722872
  Correction for halogen bonding:                               0.00000000000000
  Electronic entropic energy:                                  -0.00000000000000
  Fermi energy:                                                -0.34414600924350

  Total energy:                                               -86.40357815222544
  Total energy (extrapolated to T->0):                        -86.40357815222544

 ENERGY| Total FORCE_EVAL ( QS ) energy [hartree]            -86.403578152225435

 -------------------------------------------------------------------------------
 -                                                                             -
 -                                DBCSR STATISTICS                             -
 -                                                                             -
 -------------------------------------------------------------------------------
 COUNTER                                    TOTAL       BLAS       SMM       ACC
 flops     1 x     8 x     1               250880       0.0%    100.0%      0.0%     
 flops     1 x    32 x     1              3010560       0.0%    100.0%      0.0%     
 flops     1 x     8 x     4              3010560       0.0%    100.0%      0.0%     
 flops     4 x     8 x     1              3010560       0.0%    100.0%      0.0%     
 flops     1 x     1 x   104              5601024       0.0%    100.0%      0.0%     
 flops     1 x    32 x     4             36126720       0.0%    100.0%      0.0%     
 flops     4 x    32 x     1             36126720       0.0%    100.0%      0.0%     
 flops     4 x     8 x     4             36126720       0.0%    100.0%      0.0%     
 flops     1 x     4 x   104             59744256       0.0%    100.0%      0.0%     
 flops     4 x     1 x   104             59744256       0.0%    100.0%      0.0%     
 flops     4 x    32 x     4            433520640       0.0%    100.0%      0.0%     
 flops     4 x     4 x   104            746803200       0.0%    100.0%      0.0%     
 flops inhomo. stacks                           0       0.0%      0.0%      0.0%
 flops total                         1.423076E+09       0.0%    100.0%      0.0%
 flops max/rank                      1.423076E+09       0.0%    100.0%      0.0%
 matmuls inhomo. stacks                         0       0.0%      0.0%      0.0%
 matmuls total                            1398464       0.0%    100.0%      0.0%
 number of processed stacks                  5197       0.0%    100.0%      0.0%
 average stack size                                     0.0     269.1       0.0
 marketing flops                     1.651473E+09
 -------------------------------------------------------------------------------
 # multiplications                            993
 max memory usage/rank              13.674504E+09
 # max total images/rank                        1
 # max 3D layers                                1
 # MPI messages exchanged                       0
 -------------------------------------------------------------------------------
 -                                                                             -
 -                      DBCSR MESSAGE PASSING PERFORMANCE                      -
 -                                                                             -
 -------------------------------------------------------------------------------
 ROUTINE             CALLS      AVE VOLUME [Bytes]
 MP_Bcast               13                     12.
 MP_Allreduce         4518                      8.
 MP_Alltoall         32617                  57510.
 MP_ISend             3972                   4771.
 MP_IRecv             3972                   4771.
 -------------------------------------------------------------------------------

 -------------------------------------------------------------------------------
 -                                                                             -
 -                          OFFLOAD MEMPOOL STATISTICS                         -
 -                                                                             -
 -------------------------------------------------------------------------------
 Memory consumption                Number of allocations  Used [MiB]  Size [MiB]
 Device                                                1           0           0
 Host                                                  1           0           0
 -------------------------------------------------------------------------------

 MEMORY| Estimated peak process memory [MiB]                                 168

 -------------------------------------------------------------------------------
 -                                                                             -
 -                         MESSAGE PASSING PERFORMANCE                         -
 -                                                                             -
 -------------------------------------------------------------------------------

 ROUTINE             CALLS      AVE VOLUME [Bytes]
 MP_Group               51
 MP_Bcast             1494                    418.
 MP_Allreduce        23338                    240.
 MP_Sync               798
 MP_comm_split         747
 -------------------------------------------------------------------------------


 -------------------------------------------------------------------------------
 -                                                                             -
 -                           R E F E R E N C E S                               -
 -                                                                             -
 -------------------------------------------------------------------------------
 
 CP2K version 2026.1 (Development Version), the CP2K developers group (2026).
 CP2K is freely available from https://www.cp2k.org/ .
 
 M. Iannuzzi, J. Wilhelm, F. Stein, A. Bussy, H. Elgabarty, D. Golze, A. Hehn, 
 M. Graml, S. Marek, B. Sertcan Gökmen, C. Schran, H. Forbert, R. Z. 
 Khaliullin, A. Kozhevnikov, M. Taillefumier, R. Meli, V. V. Rybkin, M. Brehm, 
 R. Schade, O. Schütt, J. V. Pototschnig, H. Mirhosseini, A. Knüpfer, D. Marx, 
 M. Krack, J. Hutter, T. D. Kühne.
 J. Phys. Chem. B 130, 1237-1310 (2026).
 The CP2K Program Package Made Simple.
 https://doi.org/10.1021/acs.jpcb.5c05851

 A. Katbashev, M. Stahn, T. Rose, V. Alizadeh, M. Friede, C. Plett, P. 
 Steinbach, S. Ehlert.
 J. Phys. Chem. A 129, 2667-2682 (2025).
 Overview on Building Blocks and Applications of Efficient and Robust Extended 
 Tight Binding.
 https://doi.org/10.1021/acs.jpca.4c08263

 T. D. Kühne, M. Iannuzzi, M. Del Ben, V. V. Rybkin, P. Seewald, F. Stein, T. 
 Laino, R. Z. Khaliullin, O. Schütt, F. Schiffmann, D. Golze, J. Wilhelm, S. 
 Chulkov, M. H. Bani-Hashemian, V. Weber, U. Borstnik, M. Taillefumier, A. S. 
 Jakobovits, A. Lazzaro, H. Pabst, T. Müller, R. Schade, M. Guidon, S. 
 Andermatt, N. Holmberg, G. K. Schenter, A. Hehn, A. Bussy, F. Belleflamme, G. 
 Tabacchi, A. Glöß, M. Lass, I. Bethune, C. J. Mundy, C. Plessl, M. Watkins, 
 J. VandeVondele, M. Krack, J. Hutter.
 J. Chem. Phys. 152, 194103 (2020).
 CP2K: An electronic structure and molecular dynamics software package - 
 Quickstep: Efficient and accurate electronic structure calculations.
 https://doi.org/10.1063/5.0007045

 P. Pracht, E. Caldeweyher, S. Ehlert, S. Grimme.
 ChemRxiv, (2019).
 A Robust Non-Self-Consistent Tight-Binding Quantum Chemistry Method for large 
 Molecules.
 https://doi.org/10.26434/chemrxiv.8326202.v1

 S. Grimme, C. Bannwarth, P. Shushkov.
 J. Chem. Theory Comput. 13, 1989 (2017).
 A Robust and Accurate Tight-Binding Quantum Chemical Method for Structures, 
 Vibrational Frequencies, and Noncovalent Interactions of Large Molecular 
 Systems Parametrized for All spd-Block Elements (Z = 1-86).
 https://doi.org/10.1021/acs.jctc.7b00118

 O. Schuett, P. Messmer, J. Hutter, J. VandeVondele.
 Electronic Structure Calculations on Graphics Processing Units, 173-190 (2016).
 GPU-Accelerated Sparse Matrix-Matrix Multiplication for Linear Scaling Density 
 Functional Theory.
 https://doi.org/10.1002/9781118670712.ch8

 A. Heinecke, G. Henry, M. Hutchinson, H. Pabst.
 Proceedings of Intl. Supercomputing Conference, 981-991 (2016).
 LIBXSMM: Accelerating Small Matrix Multiplications by Runtime Code Generation.
 https://doi.org/10.1109/SC.2016.83

 U. Borstnik, J. VandeVondele, V. Weber, J. Hutter.
 Parallel Comput. 40, 47-58 (2014).
 Sparse matrix multiplication: The distributed block-compressed sparse row 
 library.
 https://doi.org/10.1016/j.parco.2014.03.012

 T. D. Kühne, M. Krack, F. R. Mohamed, M. Parrinello.
 Phys. Rev. Lett. 98, 066401 (2007).
 Efficient and accurate Car-Parrinello-like approach to Born-Oppenheimer 
 molecular dynamics.
 https://doi.org/10.1103/PhysRevLett.98.066401

 M. Frigo, S. G. Johnson.
 Proc. IEEE 93, 216-231 (2005).
 The design and implementation of FFTW3.
 https://doi.org/10.1109/JPROC.2004.840301

 J. Kolafa.
 J. Comput. Chem. 25, 335-342 (2004).
 Time-reversible always stable predictor-corrector method for molecular dynamics 
 of polarizable molecules.
 https://doi.org/10.1002/jcc.10385

 N. D. Mermin.
 Phys. Rev. 137, A1441-A1443 (1965).
 Thermal Properties of the Inhomogeneous Electron Gas.
 https://doi.org/10.1103/PhysRev.137.A1441


 -------------------------------------------------------------------------------
 -                                                                             -
 -                                T I M I N G                                  -
 -                                                                             -
 -------------------------------------------------------------------------------
 SUBROUTINE                       CALLS  ASD         SELF TIME        TOTAL TIME
                                MAXIMUM       AVERAGE  MAXIMUM  AVERAGE  MAXIMUM
 CP2K                                 1  1.0    0.003    0.003   98.497   98.497
 cp_cell_opt                          1  2.0    0.000    0.000   98.491   98.491
 geoopt_bfgs                          1  3.0    0.008    0.008   98.490   98.490
 cp_eval_at                          52  4.0    0.008    0.008   98.359   98.359
 qs_forces                           51  5.0    0.004    0.004   97.831   97.831
 build_tblite_matrices              103  7.0   81.255   81.255   82.889   82.889
 qs_energies                         52  6.0    0.002    0.002   31.236   31.236
 qs_energies_init_hamiltonians       52  7.0    0.000    0.000   25.240   25.240
 rebuild_ks_matrix                  697  9.8    0.001    0.001   10.664   10.664
 build_tblite_ks_matrix             697 10.8   10.640   10.640   10.663   10.663
 qs_ks_update_qs_env_forces          51  6.0    0.000    0.000    9.378    9.378
 scf_env_do_scf                      52  7.0    0.001    0.001    5.287    5.287
 scf_env_do_scf_inner_loop          646  8.0    0.650    0.650    5.281    5.281
 qs_scf_new_mos                     646  9.0    0.005    0.005    3.149    3.149
 -------------------------------------------------------------------------------

 The number of warnings for this run is : 0
 
 -------------------------------------------------------------------------------
  **** **** ******  **  PROGRAM ENDED AT                 2026-05-23 22:49:21.055
 ***** ** ***  *** **   PROGRAM RAN ON                                spark-c86c
 **    ****   ******    PROGRAM RAN BY                                  kuehne88
 ***** **    ** ** **   PROGRAM PROCESS ID                               2270081
  **** **  *******  **  PROGRAM STOPPED IN /home/kuehne88/periodic-gfn2-benchmar
                                           ks/X23b/runs/cellopt_gamma/GFN2/oxali
                                           c_acid_alpha_GFN2_gamma_cellopt
