 DBCSR| CPU Multiplication driver                                           XSMM (U)
 DBCSR| Multrec recursion limit                                              512 (U)
 DBCSR| Multiplication stack size                                           1000 (D)
 DBCSR| Maximum elements for images                                    UNLIMITED (U)
 DBCSR| Multiplicative factor virtual images                                   1 (U)
 DBCSR| Use multiplication densification                                       T (D)
 DBCSR| Multiplication size stacks                                             3 (U)
 DBCSR| Use memory pool for CPU allocation                                     F (U)
 DBCSR| Number of 3D layers                                               SINGLE (U)
 DBCSR| Use MPI memory allocation                                              F (U)
 DBCSR| Use RMA algorithm                                                      F (U)
 DBCSR| Use Communication thread                                               T (U)
 DBCSR| Communication thread load                                             87 (D)
 DBCSR| MPI: My process id                                                     0
 DBCSR| MPI: Number of processes                                               1
 DBCSR| OMP: Current number of threads                                         1
 DBCSR| OMP: Max number of threads                                             1
 DBCSR| Split modifier for TAS multiplication algorithm                  1.0E+00 (U)


  **** **** ******  **  PROGRAM STARTED AT               2026-05-23 22:46:18.298
 ***** ** ***  *** **   PROGRAM STARTED ON                            spark-c86c
 **    ****   ******    PROGRAM STARTED BY                              kuehne88
 ***** **    ** ** **   PROGRAM PROCESS ID                               2222310
  **** **  *******  **  PROGRAM STARTED IN /home/kuehne88/periodic-gfn2-benchmar
                                           ks/X23b/runs/molecule_geoopt/GFN1/14-
                                           cyclohexanedione_GFN1_mol_geoopt

 CP2K| version string:                 CP2K version 2026.1 (Development Version)
 CP2K| source code revision number:                                   0622d442e4
 CP2K| cp2kflags: omp fftw3 libxc parallel scalapack mpi_f08 xsmm spglib libdftd
 CP2K|            4 dftd4_v3 mctc-lib tblite
 CP2K| is freely available from                            https://www.cp2k.org/
 CP2K| Program compiled at                                   2026-05-23 22:05:08
 CP2K| Program compiled on                                            spark-c86c
 CP2K| Program compiled for                                              aarch64
 CP2K| Data directory path    /home/kuehne88/cp2k-master-tblite-20260523/install
 CP2K| Input file name                   14-cyclohexanedione_GFN1_mol_geoopt.inp

 GLOBAL| Force Environment number                                              1
 GLOBAL| Basis set file name                                           BASIS_SET
 GLOBAL| Potential file name                                           POTENTIAL
 GLOBAL| MM Potential file name                                     MM_POTENTIAL
 GLOBAL| Coordinate file name                                      __STD_INPUT__
 GLOBAL| Method name                                                        CP2K
 GLOBAL| Project name                        14_cyclohexanedione_GFN1_mol_geoopt
 GLOBAL| Run type                                                        GEO_OPT
 GLOBAL| FFT library                                                       FFTW3
 GLOBAL| Diagonalization library                                       ScaLAPACK
 GLOBAL| Cholesky decomposition library                                ScaLAPACK
 GLOBAL| DGEMM library                                                      BLAS
 GLOBAL| Direct generalized diagonalization requested                          F
 GLOBAL| Orthonormality check for eigenvectors                          DISABLED
 GLOBAL| Matrix multiplication library                                 ScaLAPACK
 GLOBAL| All-to-all communication in single precision                          F
 GLOBAL| FFTs using library dependent lengths                                  F
 GLOBAL| Grid backend                                                       AUTO
 GLOBAL| Global print level                                                  LOW
 GLOBAL| MPI I/O enabled                                                       T
 GLOBAL| Total number of message passing processes                             1
 GLOBAL| Number of distributed systems (nodes)                                 1
 GLOBAL| Number of threads for this process                                    1
 GLOBAL| This output is from process                                           0
 GLOBAL| OpenMP stack size per thread (OMP_STACKSIZE)                    default
 GLOBAL| CPU model name                                                  UNKNOWN
 GLOBAL| CPUID                                                              2200
 GLOBAL| Compiled for CPUID                                                 2000

 *** HINT in environment.F:970 :: The compiler target flags (arm_arch64)   ***
 *** used to build this binary cannot exploit all extensions of this CPU   ***
 *** model (arm_sve256). Consider compiler target flags as part of FCFLAGS ***
 *** and CFLAGS (ARCH file).                                               ***


 MEMORY| system memory details [Kb]
 MEMORY|                        rank 0           min           max       average
 MEMORY| MemTotal            125508532     125508532     125508532     125508532
 MEMORY| MemFree             107417064     107417064     107417064     107417064
 MEMORY| Buffers                865704        865704        865704        865704
 MEMORY| Cached               13213288      13213288      13213288      13213288
 MEMORY| Slab                  1563824       1563824       1563824       1563824
 MEMORY| SReclaimable           888200        888200        888200        888200
 MEMORY| MemLikelyFree       122384256     122384256     122384256     122384256


 GENERATE|  Preliminary Number of Bonds generated:                             0
 GENERATE|  Achieved consistency in connectivity generation.


                  #####   #####        #     #   #     #       #          
                 #     # #     #      #    ##### #     #   # #####  ####  
                 #     # #           #       #   ###   #       #   #    # 
                 #     #  #####     #        #   #  #  #   #   #   ###### 
                 #   # #       #   #         #   #   # #   #   #   #      
                 #    #  #     #  #          #   #  #  # # #   #    #   # 
                  #### #  #####  #           #   ###   ##  #   #     ###  

                                   GFN1-xTB  
                                 Version 0.0                       
                            Johann V. Pototschnig                  



 TOTAL NUMBERS AND MAXIMUM NUMBERS

  Total number of            - Atomic kinds:                                   3
                             - Atoms:                                         16
                             - Shell sets:                                    32
                             - Shells:                                        32
                             - Primitive Cartesian functions:                184
                             - Cartesian basis functions:                     48
                             - Spherical basis functions:                     48

  Maximum angular momentum of the orbital basis functions:                     1


 SCF PARAMETERS         Density guess:                                     MOPAC
                        --------------------------------------------------------
                        max_scf:                                             300
                        max_scf_history:                                       0
                        max_diis:                                              4
                        --------------------------------------------------------
                        eps_scf:                                        1.00E-09
                        eps_scf_history:                                0.00E+00
                        eps_diis:                                       1.00E-01
                        eps_eigval:                                     1.00E-05
                        --------------------------------------------------------
                        level_shift [a.u.]:                             0.000000
                        added MOs                                        26    0
                        --------------------------------------------------------
                        Mixing method:                           DIRECT_P_MIXING
                        --------------------------------------------------------
                        Smear method:                                FERMI_DIRAC
                        Electronic temperature [K]:                        300.0
                        Electronic temperature [a.u.]:                  9.50E-04
                        Accuracy threshold:                             1.00E-06
                        --------------------------------------------------------
                        No outer SCF

 BFGS| Use rational function optimization for step estimation:                NO
 BFGS| Use model Hessian for initial guess:                                  YES
 BFGS| Restart Hessian:                                                       NO
 BFGS| Trust radius:                                                       0.472

 *******************************************************************************
 ***                     STARTING GEOMETRY OPTIMIZATION                      ***
 ***                                   BFGS                                  ***
 *******************************************************************************

 Extrapolation method: initial_guess

 Number of electrons:                                                         44
 Number of occupied orbitals:                                                 22
 Number of molecular orbitals:                                                48

 Number of orbital functions:                                                 48
 Number of independent orbital functions:                                     48


 SCF WAVEFUNCTION OPTIMIZATION

  Step     Update method      Time    Convergence         Total energy    Change
  ------------------------------------------------------------------------------
     1 TBLite/Diag 0.40E+00    0.0     1.40316931       -25.9576733718 -2.60E+01
     2 TBLite/Diag 0.40E+00    0.0     0.45605589       -26.3861113853 -4.28E-01
     3 TBLite/Diag 0.40E+00    0.0     0.07360731       -26.3901774024 -4.07E-03
     4 TBLite/Diag 0.40E+00    0.0     0.07813837       -26.3924907327 -2.31E-03
     5 TBLite/Diag 0.40E+00    0.0     0.04684813       -26.3942146034 -1.72E-03
     6 TBLite/Diag 0.40E+00    0.0     0.01861612       -26.3943648825 -1.50E-04
     7 TBLite/Diag 0.40E+00    0.0     0.00807015       -26.3944646608 -9.98E-05
     8 TBLite/Diag 0.40E+00    0.0     0.00021694       -26.3944648440 -1.83E-07
     9 TBLite/Diag 0.40E+00    0.0     0.00008076       -26.3944648708 -2.69E-08
    10 TBLite/Diag 0.40E+00    0.0     0.00005655       -26.3944648764 -5.57E-09
    11 TBLite/Diag 0.40E+00    0.0     0.00000050       -26.3944648764 -6.00E-13
    12 TBLite/Diag 0.40E+00    0.0     0.00000003       -26.3944648764 -1.07E-14
    13 TBLite/Diag 0.40E+00    0.0     0.00000004       -26.3944648764  0.00E+00
    14 TBLite/Diag 0.40E+00    0.0     5.8100E-09       -26.3944648764  1.42E-14
    15 TBLite/Diag 0.40E+00    0.0     4.0829E-10       -26.3944648764 -3.20E-14

  *** SCF run converged in    15 steps ***


  Core Hamiltonian energy:                                    -26.76090468451235
  Repulsive potential energy:                                   0.27493867540403
  Electrostatic energy:                                         0.09834034658768
  Self-consistent dispersion energy:                            0.00000000000000
  Non-self consistent dispersion energy:                       -0.00683921388022
  Correction for halogen bonding:                               0.00000000000000
  Electronic entropic energy:                                  -0.00000000000000
  Fermi energy:                                                -0.33614839462539

  Total energy:                                               -26.39446487640085
  Total energy (extrapolated to T->0):                        -26.39446487640085

 ENERGY| Total FORCE_EVAL ( QS ) energy [hartree]            -26.394464876400853

 OPT| **************************************************************************
 OPT| Step number                                                              0
 OPT| Optimization method                                                   BFGS
 OPT| Total energy [hartree]                                      -26.3944648764
 OPT| Used time [s]                                                        0.019
 OPT| **************************************************************************
 OPT| Estimated peak process memory [MiB]                                    166

 --------------------------
 OPTIMIZATION STEP:      1
 --------------------------

 Extrapolation method: ASPC

 Number of electrons:                                                         44
 Number of occupied orbitals:                                                 22
 Number of molecular orbitals:                                                48

 Number of orbital functions:                                                 48
 Number of independent orbital functions:                                     48


 SCF WAVEFUNCTION OPTIMIZATION

  Step     Update method      Time    Convergence         Total energy    Change
  ------------------------------------------------------------------------------
     1 TBLite/Diag 0.40E+00    0.0     0.02309873       -26.3960483278 -2.64E+01
     2 TBLite/Diag 0.40E+00    0.0     0.00288320       -26.3960792887 -3.10E-05
     3 TBLite/Diag 0.40E+00    0.0     0.00088795       -26.3960797625 -4.74E-07
     4 TBLite/Diag 0.40E+00    0.0     0.00044821       -26.3960798130 -5.06E-08
     5 TBLite/Diag 0.40E+00    0.0     0.00022152       -26.3960799233 -1.10E-07
     6 TBLite/Diag 0.40E+00    0.0     0.00002462       -26.3960799249 -1.68E-09
     7 TBLite/Diag 0.40E+00    0.0     0.00000124       -26.3960799249 -3.00E-12
     8 TBLite/Diag 0.40E+00    0.0     0.00000005       -26.3960799249  3.55E-15
     9 TBLite/Diag 0.40E+00    0.0     4.1240E-09       -26.3960799249 -1.42E-14
    10 TBLite/Diag 0.40E+00    0.0     2.3171E-09       -26.3960799249 -1.78E-14
    11 TBLite/Diag 0.40E+00    0.0     4.6493E-11       -26.3960799249  1.78E-14

  *** SCF run converged in    11 steps ***


  Core Hamiltonian energy:                                    -26.77573685945817
  Repulsive potential energy:                                   0.28952466654725
  Electrostatic energy:                                         0.09699697212368
  Self-consistent dispersion energy:                            0.00000000000000
  Non-self consistent dispersion energy:                       -0.00686470415138
  Correction for halogen bonding:                               0.00000000000000
  Electronic entropic energy:                                  -0.00000000000000
  Fermi energy:                                                -0.33064579505493

  Total energy:                                               -26.39607992493863
  Total energy (extrapolated to T->0):                        -26.39607992493863

 ENERGY| Total FORCE_EVAL ( QS ) energy [hartree]            -26.396079924938633

 OPT| **************************************************************************
 OPT| Step number                                                              1
 OPT| Optimization method                                                   BFGS
 OPT| Total energy [hartree]                                      -26.3960799249
 OPT| Effective energy change [hartree]                            -0.0016150485
 OPT| Predicted energy change [hartree]                            -0.0013129357
 OPT| Scaling factor                                                0.0000000000
 OPT| Step size                                                     0.0444487657
 OPT| Trust radius                                                  0.4724315332
 OPT| Decrease in energy                                                     YES
 OPT| Used time [s]                                                        0.015
 OPT|
 OPT| Maximum step size                                             0.0444487657
 OPT| Convergence limit for maximum step size                       0.0030000000
 OPT| Maximum step size is converged                                          NO
 OPT|
 OPT| RMS step size                                                 0.0143317037
 OPT| Convergence limit for RMS step size                           0.0015000000
 OPT| RMS step size is converged                                              NO
 OPT|
 OPT| Maximum gradient                                              0.0052079553
 OPT| Convergence limit for maximum gradient                        0.0004500000
 OPT| Maximum gradient is converged                                           NO
 OPT|
 OPT| RMS gradient                                                  0.0016036628
 OPT| Convergence limit for RMS gradient                            0.0003000000
 OPT| RMS gradient is converged                                               NO
 OPT| **************************************************************************
 OPT| Estimated peak process memory after this step [MiB]                    167

 --------------------------
 OPTIMIZATION STEP:      2
 --------------------------

 Extrapolation method: ASPC

 Number of electrons:                                                         44
 Number of occupied orbitals:                                                 22
 Number of molecular orbitals:                                                48

 Number of orbital functions:                                                 48
 Number of independent orbital functions:                                     48


 SCF WAVEFUNCTION OPTIMIZATION

  Step     Update method      Time    Convergence         Total energy    Change
  ------------------------------------------------------------------------------
     1 TBLite/Diag 0.40E+00    0.0     0.00677066       -26.3962145814 -2.64E+01
     2 TBLite/Diag 0.40E+00    0.0     0.00103513       -26.3962186604 -4.08E-06
     3 TBLite/Diag 0.40E+00    0.0     0.00030274       -26.3962187145 -5.41E-08
     4 TBLite/Diag 0.40E+00    0.0     0.00014983       -26.3962187208 -6.27E-09
     5 TBLite/Diag 0.40E+00    0.0     0.00007466       -26.3962187332 -1.24E-08
     6 TBLite/Diag 0.40E+00    0.0     0.00000945       -26.3962187334 -2.48E-10
     7 TBLite/Diag 0.40E+00    0.0     0.00000031       -26.3962187334 -1.99E-13
     8 TBLite/Diag 0.40E+00    0.0     4.2024E-09       -26.3962187334  1.78E-14
     9 TBLite/Diag 0.40E+00    0.0     1.4802E-09       -26.3962187334 -1.78E-14
    10 TBLite/Diag 0.40E+00    0.0     9.0421E-10       -26.3962187334  2.13E-14

  *** SCF run converged in    10 steps ***


  Core Hamiltonian energy:                                    -26.78061830745342
  Repulsive potential energy:                                   0.29469617870513
  Electrostatic energy:                                         0.09657758282188
  Self-consistent dispersion energy:                            0.00000000000000
  Non-self consistent dispersion energy:                       -0.00687418748014
  Correction for halogen bonding:                               0.00000000000000
  Electronic entropic energy:                                  -0.00000000000000
  Fermi energy:                                                -0.32901183832601

  Total energy:                                               -26.39621873340656
  Total energy (extrapolated to T->0):                        -26.39621873340656

 ENERGY| Total FORCE_EVAL ( QS ) energy [hartree]            -26.396218733406563

 OPT| **************************************************************************
 OPT| Step number                                                              2
 OPT| Optimization method                                                   BFGS
 OPT| Total energy [hartree]                                      -26.3962187334
 OPT| Effective energy change [hartree]                            -0.0001388085
 OPT| Predicted energy change [hartree]                            -0.0001307415
 OPT| Scaling factor                                                0.0000000000
 OPT| Step size                                                     0.0115409287
 OPT| Trust radius                                                  0.4724315332
 OPT| Decrease in energy                                                     YES
 OPT| Used time [s]                                                        0.015
 OPT|
 OPT| Maximum step size                                             0.0115409287
 OPT| Convergence limit for maximum step size                       0.0030000000
 OPT| Maximum step size is converged                                          NO
 OPT|
 OPT| RMS step size                                                 0.0062093366
 OPT| Convergence limit for RMS step size                           0.0015000000
 OPT| RMS step size is converged                                              NO
 OPT|
 OPT| Maximum gradient                                              0.0016304261
 OPT| Convergence limit for maximum gradient                        0.0004500000
 OPT| Maximum gradient is converged                                           NO
 OPT|
 OPT| RMS gradient                                                  0.0004808231
 OPT| Convergence limit for RMS gradient                            0.0003000000
 OPT| RMS gradient is converged                                               NO
 OPT| **************************************************************************
 OPT| Estimated peak process memory after this step [MiB]                    167

 --------------------------
 OPTIMIZATION STEP:      3
 --------------------------

 Extrapolation method: ASPC

 Number of electrons:                                                         44
 Number of occupied orbitals:                                                 22
 Number of molecular orbitals:                                                48

 Number of orbital functions:                                                 48
 Number of independent orbital functions:                                     48


 SCF WAVEFUNCTION OPTIMIZATION

  Step     Update method      Time    Convergence         Total energy    Change
  ------------------------------------------------------------------------------
     1 TBLite/Diag 0.40E+00    0.0     0.00107322       -26.3962337141 -2.64E+01
     2 TBLite/Diag 0.40E+00    0.0     0.00007877       -26.3962337438 -2.97E-08
     3 TBLite/Diag 0.40E+00    0.0     0.00000682       -26.3962337440 -1.60E-10
     4 TBLite/Diag 0.40E+00    0.0     0.00000568       -26.3962337440 -3.84E-12
     5 TBLite/Diag 0.40E+00    0.0     0.00000245       -26.3962337440 -1.29E-11
     6 TBLite/Diag 0.40E+00    0.0     0.00000116       -26.3962337440 -2.41E-12
     7 TBLite/Diag 0.40E+00    0.0     0.00000007       -26.3962337440 -2.13E-14
     8 TBLite/Diag 0.40E+00    0.0     1.7914E-09       -26.3962337440  1.42E-14
     9 TBLite/Diag 0.40E+00    0.0     5.0579E-10       -26.3962337440  3.55E-15

  *** SCF run converged in     9 steps ***


  Core Hamiltonian energy:                                    -26.78067515478133
  Repulsive potential energy:                                   0.29467885562245
  Electrostatic energy:                                         0.09663863219218
  Self-consistent dispersion energy:                            0.00000000000000
  Non-self consistent dispersion energy:                       -0.00687607704360
  Correction for halogen bonding:                               0.00000000000000
  Electronic entropic energy:                                  -0.00000000000000
  Fermi energy:                                                -0.32911705626196

  Total energy:                                               -26.39623374401030
  Total energy (extrapolated to T->0):                        -26.39623374401030

 ENERGY| Total FORCE_EVAL ( QS ) energy [hartree]            -26.396233744010299

 OPT| **************************************************************************
 OPT| Step number                                                              3
 OPT| Optimization method                                                   BFGS
 OPT| Total energy [hartree]                                      -26.3962337440
 OPT| Effective energy change [hartree]                            -0.0000150106
 OPT| Predicted energy change [hartree]                            -0.0000108402
 OPT| Scaling factor                                                0.0000000000
 OPT| Step size                                                     0.0052152122
 OPT| Trust radius                                                  0.4724315332
 OPT| Decrease in energy                                                     YES
 OPT| Used time [s]                                                        0.014
 OPT|
 OPT| Maximum step size                                             0.0052152122
 OPT| Convergence limit for maximum step size                       0.0030000000
 OPT| Maximum step size is converged                                          NO
 OPT|
 OPT| RMS step size                                                 0.0022333603
 OPT| Convergence limit for RMS step size                           0.0015000000
 OPT| RMS step size is converged                                              NO
 OPT|
 OPT| Maximum gradient                                              0.0008865064
 OPT| Convergence limit for maximum gradient                        0.0004500000
 OPT| Maximum gradient is converged                                           NO
 OPT|
 OPT| RMS gradient                                                  0.0002536539
 OPT| Convergence limit for RMS gradient                            0.0003000000
 OPT| RMS gradient is converged                                              YES
 OPT| **************************************************************************
 OPT| Estimated peak process memory after this step [MiB]                    167

 --------------------------
 OPTIMIZATION STEP:      4
 --------------------------

 Extrapolation method: ASPC

 Number of electrons:                                                         44
 Number of occupied orbitals:                                                 22
 Number of molecular orbitals:                                                48

 Number of orbital functions:                                                 48
 Number of independent orbital functions:                                     48


 SCF WAVEFUNCTION OPTIMIZATION

  Step     Update method      Time    Convergence         Total energy    Change
  ------------------------------------------------------------------------------
     1 TBLite/Diag 0.40E+00    0.0     0.00179843       -26.3962406033 -2.64E+01
     2 TBLite/Diag 0.40E+00    0.0     0.00010293       -26.3962406412 -3.79E-08
     3 TBLite/Diag 0.40E+00    0.0     0.00000840       -26.3962406415 -3.25E-10
     4 TBLite/Diag 0.40E+00    0.0     0.00001170       -26.3962406414  6.36E-11
     5 TBLite/Diag 0.40E+00    0.0     0.00000699       -26.3962406415 -9.96E-11
     6 TBLite/Diag 0.40E+00    0.0     0.00000092       -26.3962406415 -2.25E-12
     7 TBLite/Diag 0.40E+00    0.0     0.00000002       -26.3962406415  2.49E-14
     8 TBLite/Diag 0.40E+00    0.0     4.9115E-09       -26.3962406415 -3.91E-14
     9 TBLite/Diag 0.40E+00    0.0     5.3384E-10       -26.3962406415  1.07E-14

  *** SCF run converged in     9 steps ***


  Core Hamiltonian energy:                                    -26.78059154926657
  Repulsive potential energy:                                   0.29450619487718
  Electrostatic energy:                                         0.09672186509635
  Self-consistent dispersion energy:                            0.00000000000000
  Non-self consistent dispersion energy:                       -0.00687715224402
  Correction for halogen bonding:                               0.00000000000000
  Electronic entropic energy:                                  -0.00000000000000
  Fermi energy:                                                -0.32927907850068

  Total energy:                                               -26.39624064153707
  Total energy (extrapolated to T->0):                        -26.39624064153707

 ENERGY| Total FORCE_EVAL ( QS ) energy [hartree]            -26.396240641537066

 OPT| **************************************************************************
 OPT| Step number                                                              4
 OPT| Optimization method                                                   BFGS
 OPT| Total energy [hartree]                                      -26.3962406415
 OPT| Effective energy change [hartree]                            -0.0000068975
 OPT| Predicted energy change [hartree]                            -0.0000055065
 OPT| Scaling factor                                                0.0000000000
 OPT| Step size                                                     0.0051872179
 OPT| Trust radius                                                  0.4724315332
 OPT| Decrease in energy                                                     YES
 OPT| Used time [s]                                                        0.014
 OPT|
 OPT| Maximum step size                                             0.0051872179
 OPT| Convergence limit for maximum step size                       0.0030000000
 OPT| Maximum step size is converged                                          NO
 OPT|
 OPT| RMS step size                                                 0.0021270972
 OPT| Convergence limit for RMS step size                           0.0015000000
 OPT| RMS step size is converged                                              NO
 OPT|
 OPT| Maximum gradient                                              0.0002137350
 OPT| Convergence limit for maximum gradient                        0.0004500000
 OPT| Maximum gradient is converged                                          YES
 OPT|
 OPT| RMS gradient                                                  0.0000995032
 OPT| Convergence limit for RMS gradient                            0.0003000000
 OPT| RMS gradient is converged                                              YES
 OPT| **************************************************************************
 OPT| Estimated peak process memory after this step [MiB]                    167

 --------------------------
 OPTIMIZATION STEP:      5
 --------------------------

 Extrapolation method: ASPC

 Number of electrons:                                                         44
 Number of occupied orbitals:                                                 22
 Number of molecular orbitals:                                                48

 Number of orbital functions:                                                 48
 Number of independent orbital functions:                                     48


 SCF WAVEFUNCTION OPTIMIZATION

  Step     Update method      Time    Convergence         Total energy    Change
  ------------------------------------------------------------------------------
     1 TBLite/Diag 0.40E+00    0.0     0.00163736       -26.3962440292 -2.64E+01
     2 TBLite/Diag 0.40E+00    0.0     0.00003995       -26.3962440322 -3.03E-09
     3 TBLite/Diag 0.40E+00    0.0     0.00000692       -26.3962440324 -1.16E-10
     4 TBLite/Diag 0.40E+00    0.0     0.00000499       -26.3962440323  2.72E-12
     5 TBLite/Diag 0.40E+00    0.0     0.00000254       -26.3962440324 -1.51E-11
     6 TBLite/Diag 0.40E+00    0.0     0.00000057       -26.3962440324 -3.59E-13
     7 TBLite/Diag 0.40E+00    0.0     0.00000004       -26.3962440324 -3.20E-14
     8 TBLite/Diag 0.40E+00    0.0     0.00000001       -26.3962440324  1.07E-14
     9 TBLite/Diag 0.40E+00    0.0     1.1835E-09       -26.3962440324 -3.55E-15
    10 TBLite/Diag 0.40E+00    0.0     3.1396E-10       -26.3962440324  1.78E-14

  *** SCF run converged in    10 steps ***


  Core Hamiltonian energy:                                    -26.78054303951182
  Repulsive potential energy:                                   0.29442432356810
  Electrostatic energy:                                         0.09675240290213
  Self-consistent dispersion energy:                            0.00000000000000
  Non-self consistent dispersion energy:                       -0.00687771932200
  Correction for halogen bonding:                               0.00000000000000
  Electronic entropic energy:                                  -0.00000000000000
  Fermi energy:                                                -0.32932198290381

  Total energy:                                               -26.39624403236359
  Total energy (extrapolated to T->0):                        -26.39624403236359

 ENERGY| Total FORCE_EVAL ( QS ) energy [hartree]            -26.396244032363594

 OPT| **************************************************************************
 OPT| Step number                                                              5
 OPT| Optimization method                                                   BFGS
 OPT| Total energy [hartree]                                      -26.3962440324
 OPT| Effective energy change [hartree]                            -0.0000033908
 OPT| Predicted energy change [hartree]                            -0.0000022036
 OPT| Scaling factor                                                0.0000000000
 OPT| Step size                                                     0.0039575207
 OPT| Trust radius                                                  0.4724315332
 OPT| Decrease in energy                                                     YES
 OPT| Used time [s]                                                        0.015
 OPT|
 OPT| Maximum step size                                             0.0039575207
 OPT| Convergence limit for maximum step size                       0.0030000000
 OPT| Maximum step size is converged                                          NO
 OPT|
 OPT| RMS step size                                                 0.0015767438
 OPT| Convergence limit for RMS step size                           0.0015000000
 OPT| RMS step size is converged                                              NO
 OPT|
 OPT| Maximum gradient                                              0.0004416287
 OPT| Convergence limit for maximum gradient                        0.0004500000
 OPT| Maximum gradient is converged                                          YES
 OPT|
 OPT| RMS gradient                                                  0.0001503071
 OPT| Convergence limit for RMS gradient                            0.0003000000
 OPT| RMS gradient is converged                                              YES
 OPT| **************************************************************************
 OPT| Estimated peak process memory after this step [MiB]                    167

 --------------------------
 OPTIMIZATION STEP:      6
 --------------------------

 Extrapolation method: ASPC

 Number of electrons:                                                         44
 Number of occupied orbitals:                                                 22
 Number of molecular orbitals:                                                48

 Number of orbital functions:                                                 48
 Number of independent orbital functions:                                     48


 SCF WAVEFUNCTION OPTIMIZATION

  Step     Update method      Time    Convergence         Total energy    Change
  ------------------------------------------------------------------------------
     1 TBLite/Diag 0.40E+00    0.0     0.00510255       -26.3962497873 -2.64E+01
     2 TBLite/Diag 0.40E+00    0.0     0.00003714       -26.3962497908 -3.56E-09
     3 TBLite/Diag 0.40E+00    0.0     0.00001825       -26.3962497912 -3.44E-10
     4 TBLite/Diag 0.40E+00    0.0     0.00000830       -26.3962497913 -7.18E-11
     5 TBLite/Diag 0.40E+00    0.0     0.00000233       -26.3962497913 -1.62E-11
     6 TBLite/Diag 0.40E+00    0.0     0.00000069       -26.3962497913 -5.01E-13
     7 TBLite/Diag 0.40E+00    0.0     0.00000004       -26.3962497913 -1.42E-14
     8 TBLite/Diag 0.40E+00    0.0     0.00000002       -26.3962497913  1.42E-14
     9 TBLite/Diag 0.40E+00    0.0     1.8403E-09       -26.3962497913 -2.84E-14
    10 TBLite/Diag 0.40E+00    0.0     4.1387E-10       -26.3962497913  1.78E-14

  *** SCF run converged in    10 steps ***


  Core Hamiltonian energy:                                    -26.78046704255694
  Repulsive potential energy:                                   0.29430908150908
  Electrostatic energy:                                         0.09678736354882
  Self-consistent dispersion energy:                            0.00000000000000
  Non-self consistent dispersion energy:                       -0.00687919377636
  Correction for halogen bonding:                               0.00000000000000
  Electronic entropic energy:                                  -0.00000000000000
  Fermi energy:                                                -0.32934717214494

  Total energy:                                               -26.39624979127539
  Total energy (extrapolated to T->0):                        -26.39624979127539

 ENERGY| Total FORCE_EVAL ( QS ) energy [hartree]            -26.396249791275391

 OPT| **************************************************************************
 OPT| Step number                                                              6
 OPT| Optimization method                                                   BFGS
 OPT| Total energy [hartree]                                      -26.3962497913
 OPT| Effective energy change [hartree]                            -0.0000057589
 OPT| Predicted energy change [hartree]                            -0.0000054315
 OPT| Scaling factor                                                0.0000000000
 OPT| Step size                                                     0.0103973567
 OPT| Trust radius                                                  0.4724315332
 OPT| Decrease in energy                                                     YES
 OPT| Used time [s]                                                        0.015
 OPT|
 OPT| Maximum step size                                             0.0103973567
 OPT| Convergence limit for maximum step size                       0.0030000000
 OPT| Maximum step size is converged                                          NO
 OPT|
 OPT| RMS step size                                                 0.0044625117
 OPT| Convergence limit for RMS step size                           0.0015000000
 OPT| RMS step size is converged                                              NO
 OPT|
 OPT| Maximum gradient                                              0.0008173377
 OPT| Convergence limit for maximum gradient                        0.0004500000
 OPT| Maximum gradient is converged                                           NO
 OPT|
 OPT| RMS gradient                                                  0.0002604250
 OPT| Convergence limit for RMS gradient                            0.0003000000
 OPT| RMS gradient is converged                                              YES
 OPT| **************************************************************************
 OPT| Estimated peak process memory after this step [MiB]                    167

 --------------------------
 OPTIMIZATION STEP:      7
 --------------------------

 Extrapolation method: ASPC

 Number of electrons:                                                         44
 Number of occupied orbitals:                                                 22
 Number of molecular orbitals:                                                48

 Number of orbital functions:                                                 48
 Number of independent orbital functions:                                     48


 SCF WAVEFUNCTION OPTIMIZATION

  Step     Update method      Time    Convergence         Total energy    Change
  ------------------------------------------------------------------------------
     1 TBLite/Diag 0.40E+00    0.0     0.00391090       -26.3962557722 -2.64E+01
     2 TBLite/Diag 0.40E+00    0.0     0.00007538       -26.3962558025 -3.03E-08
     3 TBLite/Diag 0.40E+00    0.0     0.00001251       -26.3962558029 -3.79E-10
     4 TBLite/Diag 0.40E+00    0.0     0.00000921       -26.3962558029 -3.85E-11
     5 TBLite/Diag 0.40E+00    0.0     0.00000351       -26.3962558029 -1.39E-11
     6 TBLite/Diag 0.40E+00    0.0     0.00000081       -26.3962558029 -2.02E-12
     7 TBLite/Diag 0.40E+00    0.0     0.00000012       -26.3962558029 -2.49E-14
     8 TBLite/Diag 0.40E+00    0.0     0.00000002       -26.3962558029  0.00E+00
     9 TBLite/Diag 0.40E+00    0.0     1.6912E-09       -26.3962558029 -3.55E-15
    10 TBLite/Diag 0.40E+00    0.0     9.0484E-11       -26.3962558029  0.00E+00

  *** SCF run converged in    10 steps ***


  Core Hamiltonian energy:                                    -26.78049817550923
  Repulsive potential energy:                                   0.29436890700088
  Electrostatic energy:                                         0.09675371001459
  Self-consistent dispersion energy:                            0.00000000000000
  Non-self consistent dispersion energy:                       -0.00688024444432
  Correction for halogen bonding:                               0.00000000000000
  Electronic entropic energy:                                  -0.00000000000000
  Fermi energy:                                                -0.32927666287904

  Total energy:                                               -26.39625580293808
  Total energy (extrapolated to T->0):                        -26.39625580293808

 ENERGY| Total FORCE_EVAL ( QS ) energy [hartree]            -26.396255802938079

 OPT| **************************************************************************
 OPT| Step number                                                              7
 OPT| Optimization method                                                   BFGS
 OPT| Total energy [hartree]                                      -26.3962558029
 OPT| Effective energy change [hartree]                            -0.0000060117
 OPT| Predicted energy change [hartree]                            -0.0000044044
 OPT| Scaling factor                                                0.0000000000
 OPT| Step size                                                     0.0084566706
 OPT| Trust radius                                                  0.4724315332
 OPT| Decrease in energy                                                     YES
 OPT| Used time [s]                                                        0.015
 OPT|
 OPT| Maximum step size                                             0.0084566706
 OPT| Convergence limit for maximum step size                       0.0030000000
 OPT| Maximum step size is converged                                          NO
 OPT|
 OPT| RMS step size                                                 0.0034651086
 OPT| Convergence limit for RMS step size                           0.0015000000
 OPT| RMS step size is converged                                              NO
 OPT|
 OPT| Maximum gradient                                              0.0005638369
 OPT| Convergence limit for maximum gradient                        0.0004500000
 OPT| Maximum gradient is converged                                           NO
 OPT|
 OPT| RMS gradient                                                  0.0001957576
 OPT| Convergence limit for RMS gradient                            0.0003000000
 OPT| RMS gradient is converged                                              YES
 OPT| **************************************************************************
 OPT| Estimated peak process memory after this step [MiB]                    167

 --------------------------
 OPTIMIZATION STEP:      8
 --------------------------

 Extrapolation method: ASPC

 Number of electrons:                                                         44
 Number of occupied orbitals:                                                 22
 Number of molecular orbitals:                                                48

 Number of orbital functions:                                                 48
 Number of independent orbital functions:                                     48


 SCF WAVEFUNCTION OPTIMIZATION

  Step     Update method      Time    Convergence         Total energy    Change
  ------------------------------------------------------------------------------
     1 TBLite/Diag 0.40E+00    0.0     0.00506252       -26.3962634991 -2.64E+01
     2 TBLite/Diag 0.40E+00    0.0     0.00017899       -26.3962635688 -6.97E-08
     3 TBLite/Diag 0.40E+00    0.0     0.00002069       -26.3962635705 -1.69E-09
     4 TBLite/Diag 0.40E+00    0.0     0.00001479       -26.3962635705 -5.41E-11
     5 TBLite/Diag 0.40E+00    0.0     0.00000594       -26.3962635707 -1.16E-10
     6 TBLite/Diag 0.40E+00    0.0     0.00000117       -26.3962635707 -2.97E-12
     7 TBLite/Diag 0.40E+00    0.0     0.00000008       -26.3962635707 -3.55E-15
     8 TBLite/Diag 0.40E+00    0.0     9.3162E-09       -26.3962635707  1.07E-14
     9 TBLite/Diag 0.40E+00    0.0     2.9455E-09       -26.3962635707 -1.07E-14
    10 TBLite/Diag 0.40E+00    0.0     2.6424E-10       -26.3962635707 -2.84E-14

  *** SCF run converged in    10 steps ***


  Core Hamiltonian energy:                                    -26.78055389002143
  Repulsive potential energy:                                   0.29449159117555
  Electrostatic energy:                                         0.09668055499034
  Self-consistent dispersion energy:                            0.00000000000000
  Non-self consistent dispersion energy:                       -0.00688182679856
  Correction for halogen bonding:                               0.00000000000000
  Electronic entropic energy:                                  -0.00000000000000
  Fermi energy:                                                -0.32918680029253

  Total energy:                                               -26.39626357065410
  Total energy (extrapolated to T->0):                        -26.39626357065410

 ENERGY| Total FORCE_EVAL ( QS ) energy [hartree]            -26.396263570654096

 OPT| **************************************************************************
 OPT| Step number                                                              8
 OPT| Optimization method                                                   BFGS
 OPT| Total energy [hartree]                                      -26.3962635707
 OPT| Effective energy change [hartree]                            -0.0000077677
 OPT| Predicted energy change [hartree]                            -0.0000050750
 OPT| Scaling factor                                                0.0000000000
 OPT| Step size                                                     0.0114726880
 OPT| Trust radius                                                  0.4724315332
 OPT| Decrease in energy                                                     YES
 OPT| Used time [s]                                                        0.015
 OPT|
 OPT| Maximum step size                                             0.0114726880
 OPT| Convergence limit for maximum step size                       0.0030000000
 OPT| Maximum step size is converged                                          NO
 OPT|
 OPT| RMS step size                                                 0.0045889098
 OPT| Convergence limit for RMS step size                           0.0015000000
 OPT| RMS step size is converged                                              NO
 OPT|
 OPT| Maximum gradient                                              0.0004432064
 OPT| Convergence limit for maximum gradient                        0.0004500000
 OPT| Maximum gradient is converged                                          YES
 OPT|
 OPT| RMS gradient                                                  0.0001465068
 OPT| Convergence limit for RMS gradient                            0.0003000000
 OPT| RMS gradient is converged                                              YES
 OPT| **************************************************************************
 OPT| Estimated peak process memory after this step [MiB]                    167

 --------------------------
 OPTIMIZATION STEP:      9
 --------------------------

 Extrapolation method: ASPC

 Number of electrons:                                                         44
 Number of occupied orbitals:                                                 22
 Number of molecular orbitals:                                                48

 Number of orbital functions:                                                 48
 Number of independent orbital functions:                                     48


 SCF WAVEFUNCTION OPTIMIZATION

  Step     Update method      Time    Convergence         Total energy    Change
  ------------------------------------------------------------------------------
     1 TBLite/Diag 0.40E+00    0.0     0.00800032       -26.3962711916 -2.64E+01
     2 TBLite/Diag 0.40E+00    0.0     0.00029677       -26.3962713213 -1.30E-07
     3 TBLite/Diag 0.40E+00    0.0     0.00004683       -26.3962713281 -6.82E-09
     4 TBLite/Diag 0.40E+00    0.0     0.00001936       -26.3962713284 -3.35E-10
     5 TBLite/Diag 0.40E+00    0.0     0.00000572       -26.3962713286 -1.49E-10
     6 TBLite/Diag 0.40E+00    0.0     0.00000212       -26.3962713286 -8.44E-12
     7 TBLite/Diag 0.40E+00    0.0     0.00000016       -26.3962713286 -5.68E-14
     8 TBLite/Diag 0.40E+00    0.0     0.00000002       -26.3962713286 -2.13E-14
     9 TBLite/Diag 0.40E+00    0.0     6.4472E-09       -26.3962713286  0.00E+00
    10 TBLite/Diag 0.40E+00    0.0     7.2067E-10       -26.3962713286  2.84E-14

  *** SCF run converged in    10 steps ***


  Core Hamiltonian energy:                                    -26.78058499734201
  Repulsive potential energy:                                   0.29462213981251
  Electrostatic energy:                                         0.09657636409882
  Self-consistent dispersion energy:                            0.00000000000000
  Non-self consistent dispersion energy:                       -0.00688483516525
  Correction for halogen bonding:                               0.00000000000000
  Electronic entropic energy:                                  -0.00000000000000
  Fermi energy:                                                -0.32913988227167

  Total energy:                                               -26.39627132859593
  Total energy (extrapolated to T->0):                        -26.39627132859593

 ENERGY| Total FORCE_EVAL ( QS ) energy [hartree]            -26.396271328595926

 OPT| **************************************************************************
 OPT| Step number                                                              9
 OPT| Optimization method                                                   BFGS
 OPT| Total energy [hartree]                                      -26.3962713286
 OPT| Effective energy change [hartree]                            -0.0000077579
 OPT| Predicted energy change [hartree]                            -0.0000072013
 OPT| Scaling factor                                                0.0000000000
 OPT| Step size                                                     0.0181386411
 OPT| Trust radius                                                  0.4724315332
 OPT| Decrease in energy                                                     YES
 OPT| Used time [s]                                                        0.015
 OPT|
 OPT| Maximum step size                                             0.0181386411
 OPT| Convergence limit for maximum step size                       0.0030000000
 OPT| Maximum step size is converged                                          NO
 OPT|
 OPT| RMS step size                                                 0.0075843515
 OPT| Convergence limit for RMS step size                           0.0015000000
 OPT| RMS step size is converged                                              NO
 OPT|
 OPT| Maximum gradient                                              0.0005520761
 OPT| Convergence limit for maximum gradient                        0.0004500000
 OPT| Maximum gradient is converged                                           NO
 OPT|
 OPT| RMS gradient                                                  0.0002231493
 OPT| Convergence limit for RMS gradient                            0.0003000000
 OPT| RMS gradient is converged                                              YES
 OPT| **************************************************************************
 OPT| Estimated peak process memory after this step [MiB]                    167

 --------------------------
 OPTIMIZATION STEP:     10
 --------------------------

 Extrapolation method: ASPC

 Number of electrons:                                                         44
 Number of occupied orbitals:                                                 22
 Number of molecular orbitals:                                                48

 Number of orbital functions:                                                 48
 Number of independent orbital functions:                                     48


 SCF WAVEFUNCTION OPTIMIZATION

  Step     Update method      Time    Convergence         Total energy    Change
  ------------------------------------------------------------------------------
     1 TBLite/Diag 0.40E+00    0.0     0.00337421       -26.3962740120 -2.64E+01
     2 TBLite/Diag 0.40E+00    0.0     0.00011174       -26.3962740256 -1.35E-08
     3 TBLite/Diag 0.40E+00    0.0     0.00003124       -26.3962740274 -1.87E-09
     4 TBLite/Diag 0.40E+00    0.0     0.00001323       -26.3962740276 -1.69E-10
     5 TBLite/Diag 0.40E+00    0.0     0.00000126       -26.3962740276 -5.39E-12
     6 TBLite/Diag 0.40E+00    0.0     0.00000052       -26.3962740276 -3.91E-13
     7 TBLite/Diag 0.40E+00    0.0     0.00000009       -26.3962740276 -2.49E-14
     8 TBLite/Diag 0.40E+00    0.0     0.00000002       -26.3962740276  7.11E-15
     9 TBLite/Diag 0.40E+00    0.0     6.5456E-09       -26.3962740276 -1.42E-14
    10 TBLite/Diag 0.40E+00    0.0     1.1090E-09       -26.3962740276  2.13E-14
    11 TBLite/Diag 0.40E+00    0.0     7.5845E-11       -26.3962740276 -7.11E-15

  *** SCF run converged in    11 steps ***


  Core Hamiltonian energy:                                    -26.78058334450750
  Repulsive potential energy:                                   0.29463721717379
  Electrostatic energy:                                         0.09655855913832
  Self-consistent dispersion energy:                            0.00000000000000
  Non-self consistent dispersion energy:                       -0.00688645941113
  Correction for halogen bonding:                               0.00000000000000
  Electronic entropic energy:                                  -0.00000000000000
  Fermi energy:                                                -0.32921859155029

  Total energy:                                               -26.39627402760652
  Total energy (extrapolated to T->0):                        -26.39627402760652

 ENERGY| Total FORCE_EVAL ( QS ) energy [hartree]            -26.396274027606520

 OPT| **************************************************************************
 OPT| Step number                                                             10
 OPT| Optimization method                                                   BFGS
 OPT| Total energy [hartree]                                      -26.3962740276
 OPT| Effective energy change [hartree]                            -0.0000026990
 OPT| Predicted energy change [hartree]                            -0.0000034186
 OPT| Scaling factor                                                0.0000000000
 OPT| Step size                                                     0.0080359315
 OPT| Trust radius                                                  0.4724315332
 OPT| Decrease in energy                                                     YES
 OPT| Used time [s]                                                        0.016
 OPT|
 OPT| Maximum step size                                             0.0080359315
 OPT| Convergence limit for maximum step size                       0.0030000000
 OPT| Maximum step size is converged                                          NO
 OPT|
 OPT| RMS step size                                                 0.0033408073
 OPT| Convergence limit for RMS step size                           0.0015000000
 OPT| RMS step size is converged                                              NO
 OPT|
 OPT| Maximum gradient                                              0.0006016546
 OPT| Convergence limit for maximum gradient                        0.0004500000
 OPT| Maximum gradient is converged                                           NO
 OPT|
 OPT| RMS gradient                                                  0.0001775977
 OPT| Convergence limit for RMS gradient                            0.0003000000
 OPT| RMS gradient is converged                                              YES
 OPT| **************************************************************************
 OPT| Estimated peak process memory after this step [MiB]                    167

 --------------------------
 OPTIMIZATION STEP:     11
 --------------------------

 Extrapolation method: ASPC

 Number of electrons:                                                         44
 Number of occupied orbitals:                                                 22
 Number of molecular orbitals:                                                48

 Number of orbital functions:                                                 48
 Number of independent orbital functions:                                     48


 SCF WAVEFUNCTION OPTIMIZATION

  Step     Update method      Time    Convergence         Total energy    Change
  ------------------------------------------------------------------------------
     1 TBLite/Diag 0.40E+00    0.0     0.00195011       -26.3962756317 -2.64E+01
     2 TBLite/Diag 0.40E+00    0.0     0.00004462       -26.3962756437 -1.21E-08
     3 TBLite/Diag 0.40E+00    0.0     0.00000734       -26.3962756439 -1.73E-10
     4 TBLite/Diag 0.40E+00    0.0     0.00000557       -26.3962756439 -1.26E-11
     5 TBLite/Diag 0.40E+00    0.0     0.00000183       -26.3962756439 -4.59E-12
     6 TBLite/Diag 0.40E+00    0.0     0.00000083       -26.3962756439 -1.24E-12
     7 TBLite/Diag 0.40E+00    0.0     0.00000010       -26.3962756439 -2.13E-14
     8 TBLite/Diag 0.40E+00    0.0     0.00000001       -26.3962756439 -1.07E-14
     9 TBLite/Diag 0.40E+00    0.0     1.1341E-09       -26.3962756439  1.42E-14
    10 TBLite/Diag 0.40E+00    0.0     3.6539E-10       -26.3962756439 -7.11E-15

  *** SCF run converged in    10 steps ***


  Core Hamiltonian energy:                                    -26.78057919609109
  Repulsive potential energy:                                   0.29460399396433
  Electrostatic energy:                                         0.09658623618418
  Self-consistent dispersion energy:                            0.00000000000000
  Non-self consistent dispersion energy:                       -0.00688667795076
  Correction for halogen bonding:                               0.00000000000000
  Electronic entropic energy:                                  -0.00000000000000
  Fermi energy:                                                -0.32930264316105

  Total energy:                                               -26.39627564389334
  Total energy (extrapolated to T->0):                        -26.39627564389334

 ENERGY| Total FORCE_EVAL ( QS ) energy [hartree]            -26.396275643893343

 OPT| **************************************************************************
 OPT| Step number                                                             11
 OPT| Optimization method                                                   BFGS
 OPT| Total energy [hartree]                                      -26.3962756439
 OPT| Effective energy change [hartree]                            -0.0000016163
 OPT| Predicted energy change [hartree]                            -0.0000014032
 OPT| Scaling factor                                                0.0000000000
 OPT| Step size                                                     0.0016816647
 OPT| Trust radius                                                  0.4724315332
 OPT| Decrease in energy                                                     YES
 OPT| Used time [s]                                                        0.015
 OPT|
 OPT| Maximum step size                                             0.0016816647
 OPT| Convergence limit for maximum step size                       0.0030000000
 OPT| Maximum step size is converged                                         YES
 OPT|
 OPT| RMS step size                                                 0.0006654370
 OPT| Convergence limit for RMS step size                           0.0015000000
 OPT| RMS step size is converged                                             YES
 OPT|
 OPT| Maximum gradient                                              0.0001784716
 OPT| Convergence limit for maximum gradient                        0.0004500000
 OPT| Maximum gradient is converged                                          YES
 OPT|
 OPT| RMS gradient                                                  0.0000672413
 OPT| Convergence limit for RMS gradient                            0.0003000000
 OPT| RMS gradient is converged                                              YES
 OPT| **************************************************************************
 OPT| Estimated peak process memory after this step [MiB]                    167

 *******************************************************************************
 ***                    GEOMETRY OPTIMIZATION COMPLETED                      ***
 *******************************************************************************

 write_final_structure: Optimization converged, writing XYZ file gladly:
  14_cyclohexanedione_GFN1_mol_geoopt-FINAL-1_11.xyz

 write_final_structure: Optimization converged, writing CIF file gladly:
  14_cyclohexanedione_GFN1_mol_geoopt-FINAL-1_11.cif

 write_final_structure: Done!

                    Reevaluating energy at the minimum

 Extrapolation method: ASPC

 Number of electrons:                                                         44
 Number of occupied orbitals:                                                 22
 Number of molecular orbitals:                                                48

 Number of orbital functions:                                                 48
 Number of independent orbital functions:                                     48


 SCF WAVEFUNCTION OPTIMIZATION

  Step     Update method      Time    Convergence         Total energy    Change
  ------------------------------------------------------------------------------
     1 TBLite/Diag 0.40E+00    0.0     5.1904E-11       -26.3962756439 -2.64E+01

  *** SCF run converged in     1 steps ***


  Core Hamiltonian energy:                                    -26.78057919608974
  Repulsive potential energy:                                   0.29460399396433
  Electrostatic energy:                                         0.09658623618283
  Self-consistent dispersion energy:                            0.00000000000000
  Non-self consistent dispersion energy:                       -0.00688667795076
  Correction for halogen bonding:                               0.00000000000000
  Electronic entropic energy:                                  -0.00000000000000
  Fermi energy:                                                -0.32930264315693

  Total energy:                                               -26.39627564389334
  Total energy (extrapolated to T->0):                        -26.39627564389334

 ENERGY| Total FORCE_EVAL ( QS ) energy [hartree]            -26.396275643893336

 -------------------------------------------------------------------------------
 -                                                                             -
 -                                DBCSR STATISTICS                             -
 -                                                                             -
 -------------------------------------------------------------------------------
 COUNTER                                    TOTAL       BLAS       SMM       ACC
 flops     2 x    16 x     2               409600       0.0%    100.0%      0.0%     
 flops     4 x    16 x     2               819200       0.0%    100.0%      0.0%     
 flops     2 x    16 x     4               819200       0.0%    100.0%      0.0%     
 flops     2 x    32 x     2               819200       0.0%    100.0%      0.0%     
 flops     4 x    16 x     4              1638400       0.0%    100.0%      0.0%     
 flops     4 x    32 x     2              1638400       0.0%    100.0%      0.0%     
 flops     2 x    32 x     4              1638400       0.0%    100.0%      0.0%     
 flops     2 x     2 x    48              2073600       0.0%    100.0%      0.0%     
 flops     4 x    32 x     4              3276800       0.0%    100.0%      0.0%     
 flops     4 x     2 x    48              3686400       0.0%    100.0%      0.0%     
 flops     2 x     4 x    48              3686400       0.0%    100.0%      0.0%     
 flops     4 x     4 x    48              8294400       0.0%    100.0%      0.0%     
 flops inhomo. stacks                           0       0.0%      0.0%      0.0%
 flops total                        28.800000E+06       0.0%    100.0%      0.0%
 flops max/rank                     28.800000E+06       0.0%    100.0%      0.0%
 matmuls inhomo. stacks                         0       0.0%      0.0%      0.0%
 matmuls total                              46000       0.0%    100.0%      0.0%
 number of processed stacks                  1000       0.0%    100.0%      0.0%
 average stack size                                     0.0      46.0       0.0
 marketing flops                    26.265600E+06
 -------------------------------------------------------------------------------
 # multiplications                            200
 max memory usage/rank              13.672137E+09
 # max total images/rank                        1
 # max 3D layers                                1
 # MPI messages exchanged                       0
 -------------------------------------------------------------------------------
 -                                                                             -
 -                      DBCSR MESSAGE PASSING PERFORMANCE                      -
 -                                                                             -
 -------------------------------------------------------------------------------
 ROUTINE             CALLS      AVE VOLUME [Bytes]
 MP_Bcast               13                     12.
 MP_Allreduce          943                      9.
 MP_Alltoall          6474                  12450.
 MP_ISend              800                   1200.
 MP_IRecv              800                   1200.
 -------------------------------------------------------------------------------

 -------------------------------------------------------------------------------
 -                                                                             -
 -                          OFFLOAD MEMPOOL STATISTICS                         -
 -                                                                             -
 -------------------------------------------------------------------------------
 Memory consumption                Number of allocations  Used [MiB]  Size [MiB]
 Device                                                1           0           0
 Host                                                  1           0           0
 -------------------------------------------------------------------------------

 MEMORY| Estimated peak process memory [MiB]                                 167

 -------------------------------------------------------------------------------
 -                                                                             -
 -                         MESSAGE PASSING PERFORMANCE                         -
 -                                                                             -
 -------------------------------------------------------------------------------

 ROUTINE             CALLS      AVE VOLUME [Bytes]
 MP_Group                1
 MP_Bcast              287                    203.
 MP_Allreduce         2229                    118.
 MP_Sync               151
 MP_comm_split         150
 -------------------------------------------------------------------------------


 -------------------------------------------------------------------------------
 -                                                                             -
 -                           R E F E R E N C E S                               -
 -                                                                             -
 -------------------------------------------------------------------------------
 
 CP2K version 2026.1 (Development Version), the CP2K developers group (2026).
 CP2K is freely available from https://www.cp2k.org/ .
 
 M. Iannuzzi, J. Wilhelm, F. Stein, A. Bussy, H. Elgabarty, D. Golze, A. Hehn, 
 M. Graml, S. Marek, B. Sertcan Gökmen, C. Schran, H. Forbert, R. Z. 
 Khaliullin, A. Kozhevnikov, M. Taillefumier, R. Meli, V. V. Rybkin, M. Brehm, 
 R. Schade, O. Schütt, J. V. Pototschnig, H. Mirhosseini, A. Knüpfer, D. Marx, 
 M. Krack, J. Hutter, T. D. Kühne.
 J. Phys. Chem. B 130, 1237-1310 (2026).
 The CP2K Program Package Made Simple.
 https://doi.org/10.1021/acs.jpcb.5c05851

 A. Katbashev, M. Stahn, T. Rose, V. Alizadeh, M. Friede, C. Plett, P. 
 Steinbach, S. Ehlert.
 J. Phys. Chem. A 129, 2667-2682 (2025).
 Overview on Building Blocks and Applications of Efficient and Robust Extended 
 Tight Binding.
 https://doi.org/10.1021/acs.jpca.4c08263

 T. D. Kühne, M. Iannuzzi, M. Del Ben, V. V. Rybkin, P. Seewald, F. Stein, T. 
 Laino, R. Z. Khaliullin, O. Schütt, F. Schiffmann, D. Golze, J. Wilhelm, S. 
 Chulkov, M. H. Bani-Hashemian, V. Weber, U. Borstnik, M. Taillefumier, A. S. 
 Jakobovits, A. Lazzaro, H. Pabst, T. Müller, R. Schade, M. Guidon, S. 
 Andermatt, N. Holmberg, G. K. Schenter, A. Hehn, A. Bussy, F. Belleflamme, G. 
 Tabacchi, A. Glöß, M. Lass, I. Bethune, C. J. Mundy, C. Plessl, M. Watkins, 
 J. VandeVondele, M. Krack, J. Hutter.
 J. Chem. Phys. 152, 194103 (2020).
 CP2K: An electronic structure and molecular dynamics software package - 
 Quickstep: Efficient and accurate electronic structure calculations.
 https://doi.org/10.1063/5.0007045

 P. Pracht, E. Caldeweyher, S. Ehlert, S. Grimme.
 ChemRxiv, (2019).
 A Robust Non-Self-Consistent Tight-Binding Quantum Chemistry Method for large 
 Molecules.
 https://doi.org/10.26434/chemrxiv.8326202.v1

 S. Grimme, C. Bannwarth, P. Shushkov.
 J. Chem. Theory Comput. 13, 1989 (2017).
 A Robust and Accurate Tight-Binding Quantum Chemical Method for Structures, 
 Vibrational Frequencies, and Noncovalent Interactions of Large Molecular 
 Systems Parametrized for All spd-Block Elements (Z = 1-86).
 https://doi.org/10.1021/acs.jctc.7b00118

 O. Schuett, P. Messmer, J. Hutter, J. VandeVondele.
 Electronic Structure Calculations on Graphics Processing Units, 173-190 (2016).
 GPU-Accelerated Sparse Matrix-Matrix Multiplication for Linear Scaling Density 
 Functional Theory.
 https://doi.org/10.1002/9781118670712.ch8

 A. Heinecke, G. Henry, M. Hutchinson, H. Pabst.
 Proceedings of Intl. Supercomputing Conference, 981-991 (2016).
 LIBXSMM: Accelerating Small Matrix Multiplications by Runtime Code Generation.
 https://doi.org/10.1109/SC.2016.83

 U. Borstnik, J. VandeVondele, V. Weber, J. Hutter.
 Parallel Comput. 40, 47-58 (2014).
 Sparse matrix multiplication: The distributed block-compressed sparse row 
 library.
 https://doi.org/10.1016/j.parco.2014.03.012

 T. D. Kühne, M. Krack, F. R. Mohamed, M. Parrinello.
 Phys. Rev. Lett. 98, 066401 (2007).
 Efficient and accurate Car-Parrinello-like approach to Born-Oppenheimer 
 molecular dynamics.
 https://doi.org/10.1103/PhysRevLett.98.066401

 M. Frigo, S. G. Johnson.
 Proc. IEEE 93, 216-231 (2005).
 The design and implementation of FFTW3.
 https://doi.org/10.1109/JPROC.2004.840301

 J. Kolafa.
 J. Comput. Chem. 25, 335-342 (2004).
 Time-reversible always stable predictor-corrector method for molecular dynamics 
 of polarizable molecules.
 https://doi.org/10.1002/jcc.10385

 N. D. Mermin.
 Phys. Rev. 137, A1441-A1443 (1965).
 Thermal Properties of the Inhomogeneous Electron Gas.
 https://doi.org/10.1103/PhysRev.137.A1441


 -------------------------------------------------------------------------------
 -                                                                             -
 -                                T I M I N G                                  -
 -                                                                             -
 -------------------------------------------------------------------------------
 SUBROUTINE                       CALLS  ASD         SELF TIME        TOTAL TIME
                                MAXIMUM       AVERAGE  MAXIMUM  AVERAGE  MAXIMUM
 CP2K                                 1  1.0    0.001    0.001    0.196    0.196
 cp_geo_opt                           1  2.0    0.000    0.000    0.190    0.190
 geoopt_bfgs                          1  3.0    0.001    0.001    0.190    0.190
 cp_eval_at                          13  4.0    0.000    0.000    0.184    0.184
 qs_forces                           12  5.0    0.000    0.000    0.180    0.180
 qs_energies                         13  5.9    0.000    0.000    0.145    0.145
 scf_env_do_scf                      13  6.9    0.000    0.000    0.107    0.107
 scf_env_do_scf_inner_loop          126  8.0    0.003    0.003    0.106    0.106
 qs_scf_new_mos                     126  9.0    0.000    0.000    0.091    0.091
 cp_dbcsr_plus_fm_fm_t              150 10.8    0.000    0.000    0.044    0.044
 calculate_dm_sparse                138 10.0    0.000    0.000    0.041    0.041
 dbcsr_multiply_generic             200 12.0    0.002    0.002    0.039    0.039
 rebuild_ks_matrix                  138  9.7    0.000    0.000    0.030    0.030
 build_tblite_ks_matrix             138 10.7    0.030    0.030    0.030    0.030
 copy_dbcsr_to_fm                   302 10.5    0.001    0.001    0.026    0.026
 dbcsr_complete_redistribute        652 12.2    0.016    0.016    0.025    0.025
 qs_ks_update_qs_env_forces          12  6.0    0.000    0.000    0.025    0.025
 build_tblite_matrices               25  7.0    0.023    0.023    0.024    0.024
 eigensolver                        126 10.0    0.001    0.001    0.024    0.024
 cp_fm_syevd                        150 10.6    0.000    0.000    0.023    0.023
 init_scf_run                        13  6.9    0.000    0.000    0.022    0.022
 make_m2s                           400 13.0    0.001    0.001    0.021    0.021
 scf_env_initial_rho_setup           13  7.9    0.000    0.000    0.020    0.020
 wfi_extrapolate                     13  8.9    0.000    0.000    0.020    0.020
 cp_fm_syevd_base                   150 11.6    0.019    0.019    0.019    0.019
 qs_diis_b_step                     113 10.0    0.000    0.000    0.015    0.015
 copy_fm_to_dbcsr                   350 11.8    0.000    0.000    0.013    0.013
 cp_dbcsr_sm_fm_multiply             50 10.4    0.000    0.000    0.012    0.012
 qs_energies_init_hamiltonians       13  6.9    0.000    0.000    0.012    0.012
 make_images                        400 14.0    0.002    0.002    0.010    0.010
 multiply_cannon                    200 13.0    0.003    0.003    0.009    0.009
 dbcsr_finalize                    2390 13.3    0.002    0.002    0.008    0.008
 qs_ks_update_qs_env                126  9.0    0.000    0.000    0.007    0.007
 cp_dbcsr_sm_fm_multiply_core        50 11.4    0.000    0.000    0.007    0.007
 dbcsr_desymmetrize_deep            302 11.5    0.004    0.004    0.007    0.007
 reorthogonalize_vectors             12  9.9    0.000    0.000    0.006    0.006
 make_basis_lowdin                   12 10.9    0.000    0.000    0.006    0.006
 dbcsr_crop_matrix                  300 13.8    0.001    0.001    0.005    0.005
 dbcsr_create_new                  4621 13.4    0.004    0.004    0.005    0.005
 parallel_gemm_fm_gemm              338 10.6    0.000    0.000    0.004    0.004
 dbcsr_copy_submatrix               300 14.8    0.002    0.002    0.004    0.004
 cp_fm_gemm                         338 11.6    0.004    0.004    0.004    0.004
 dbcsr_merge_all                   1102 14.9    0.002    0.002    0.004    0.004
 -------------------------------------------------------------------------------

 The number of warnings for this run is : 0
 
 -------------------------------------------------------------------------------
  **** **** ******  **  PROGRAM ENDED AT                 2026-05-23 22:46:19.325
 ***** ** ***  *** **   PROGRAM RAN ON                                spark-c86c
 **    ****   ******    PROGRAM RAN BY                                  kuehne88
 ***** **    ** ** **   PROGRAM PROCESS ID                               2222310
  **** **  *******  **  PROGRAM STOPPED IN /home/kuehne88/periodic-gfn2-benchmar
                                           ks/X23b/runs/molecule_geoopt/GFN1/14-
                                           cyclohexanedione_GFN1_mol_geoopt
