 DBCSR| CPU Multiplication driver                                           XSMM (U)
 DBCSR| Multrec recursion limit                                              512 (U)
 DBCSR| Multiplication stack size                                           1000 (D)
 DBCSR| Maximum elements for images                                    UNLIMITED (U)
 DBCSR| Multiplicative factor virtual images                                   1 (U)
 DBCSR| Use multiplication densification                                       T (D)
 DBCSR| Multiplication size stacks                                             3 (U)
 DBCSR| Use memory pool for CPU allocation                                     F (U)
 DBCSR| Number of 3D layers                                               SINGLE (U)
 DBCSR| Use MPI memory allocation                                              F (U)
 DBCSR| Use RMA algorithm                                                      F (U)
 DBCSR| Use Communication thread                                               T (U)
 DBCSR| Communication thread load                                             87 (D)
 DBCSR| MPI: My process id                                                     0
 DBCSR| MPI: Number of processes                                               1
 DBCSR| OMP: Current number of threads                                         1
 DBCSR| OMP: Max number of threads                                             1
 DBCSR| Split modifier for TAS multiplication algorithm                  1.0E+00 (U)


  **** **** ******  **  PROGRAM STARTED AT               2026-05-23 22:46:51.672
 ***** ** ***  *** **   PROGRAM STARTED ON                            spark-c86c
 **    ****   ******    PROGRAM STARTED BY                              kuehne88
 ***** **    ** ** **   PROGRAM PROCESS ID                               2265232
  **** **  *******  **  PROGRAM STARTED IN /home/kuehne88/periodic-gfn2-benchmar
                                           ks/X23b/runs/cellopt_gamma/GFN1/forma
                                           mide_GFN1_gamma_cellopt

 CP2K| version string:                 CP2K version 2026.1 (Development Version)
 CP2K| source code revision number:                                   0622d442e4
 CP2K| cp2kflags: omp fftw3 libxc parallel scalapack mpi_f08 xsmm spglib libdftd
 CP2K|            4 dftd4_v3 mctc-lib tblite
 CP2K| is freely available from                            https://www.cp2k.org/
 CP2K| Program compiled at                                   2026-05-23 22:05:08
 CP2K| Program compiled on                                            spark-c86c
 CP2K| Program compiled for                                              aarch64
 CP2K| Data directory path    /home/kuehne88/cp2k-master-tblite-20260523/install
 CP2K| Input file name                          formamide_GFN1_gamma_cellopt.inp

 GLOBAL| Force Environment number                                              1
 GLOBAL| Basis set file name                                           BASIS_SET
 GLOBAL| Potential file name                                           POTENTIAL
 GLOBAL| MM Potential file name                                     MM_POTENTIAL
 GLOBAL| Coordinate file name                                      __STD_INPUT__
 GLOBAL| Method name                                                        CP2K
 GLOBAL| Project name                              formamide_GFN1_gamma_cell_opt
 GLOBAL| Run type                                                       CELL_OPT
 GLOBAL| FFT library                                                       FFTW3
 GLOBAL| Diagonalization library                                       ScaLAPACK
 GLOBAL| Cholesky decomposition library                                ScaLAPACK
 GLOBAL| DGEMM library                                                      BLAS
 GLOBAL| Direct generalized diagonalization requested                          F
 GLOBAL| Orthonormality check for eigenvectors                          DISABLED
 GLOBAL| Matrix multiplication library                                 ScaLAPACK
 GLOBAL| All-to-all communication in single precision                          F
 GLOBAL| FFTs using library dependent lengths                                  F
 GLOBAL| Grid backend                                                       AUTO
 GLOBAL| Global print level                                                  LOW
 GLOBAL| MPI I/O enabled                                                       T
 GLOBAL| Total number of message passing processes                             1
 GLOBAL| Number of distributed systems (nodes)                                 1
 GLOBAL| Number of threads for this process                                    1
 GLOBAL| This output is from process                                           0
 GLOBAL| OpenMP stack size per thread (OMP_STACKSIZE)                    default
 GLOBAL| CPU model name                                                  UNKNOWN
 GLOBAL| CPUID                                                              2200
 GLOBAL| Compiled for CPUID                                                 2000

 *** HINT in environment.F:970 :: The compiler target flags (arm_arch64)   ***
 *** used to build this binary cannot exploit all extensions of this CPU   ***
 *** model (arm_sve256). Consider compiler target flags as part of FCFLAGS ***
 *** and CFLAGS (ARCH file).                                               ***


 MEMORY| system memory details [Kb]
 MEMORY|                        rank 0           min           max       average
 MEMORY| MemTotal            125508532     125508532     125508532     125508532
 MEMORY| MemFree             101642188     101642188     101642188     101642188
 MEMORY| Buffers                867432        867432        867432        867432
 MEMORY| Cached               13958184      13958184      13958184      13958184
 MEMORY| Slab                  1589960       1589960       1589960       1589960
 MEMORY| SReclaimable           911596        911596        911596        911596
 MEMORY| MemLikelyFree       117379400     117379400     117379400     117379400


 GENERATE|  Preliminary Number of Bonds generated:                             0
 GENERATE|  Achieved consistency in connectivity generation.


                  #####   #####        #     #   #     #       #          
                 #     # #     #      #    ##### #     #   # #####  ####  
                 #     # #           #       #   ###   #       #   #    # 
                 #     #  #####     #        #   #  #  #   #   #   ###### 
                 #   # #       #   #         #   #   # #   #   #   #      
                 #    #  #     #  #          #   #  #  # # #   #    #   # 
                  #### #  #####  #           #   ###   ##  #   #     ###  

                                   GFN1-xTB  
                                 Version 0.0                       
                            Johann V. Pototschnig                  



 TOTAL NUMBERS AND MAXIMUM NUMBERS

  Total number of            - Atomic kinds:                                   4
                             - Atoms:                                         24
                             - Shell sets:                                    48
                             - Shells:                                        48
                             - Primitive Cartesian functions:                276
                             - Cartesian basis functions:                     72
                             - Spherical basis functions:                     72

  Maximum angular momentum of the orbital basis functions:                     1


 SCF PARAMETERS         Density guess:                                     MOPAC
                        --------------------------------------------------------
                        max_scf:                                             300
                        max_scf_history:                                       0
                        max_diis:                                              4
                        --------------------------------------------------------
                        eps_scf:                                        1.00E-09
                        eps_scf_history:                                0.00E+00
                        eps_diis:                                       1.00E-01
                        eps_eigval:                                     1.00E-05
                        --------------------------------------------------------
                        level_shift [a.u.]:                             0.000000
                        added MOs                                        36    0
                        --------------------------------------------------------
                        Mixing method:                           DIRECT_P_MIXING
                        --------------------------------------------------------
                        Smear method:                                FERMI_DIRAC
                        Electronic temperature [K]:                        300.0
                        Electronic temperature [a.u.]:                  9.50E-04
                        Accuracy threshold:                             1.00E-06
                        --------------------------------------------------------
                        No outer SCF

 CELL_OPT| Pressure tolerance [bar]:                                       100.0
 CELL_OPT| Keep volume of cell:                                               NO
 CELL_OPT| Keep angles between the cell vectors:                              NO
 CELL_OPT| Keep cell symmetry:                                                NO
 CELL_OPT| Constraint:                                                      NONE

 BFGS| Use rational function optimization for step estimation:                NO
 BFGS| Use model Hessian for initial guess:                                   NO
 BFGS| Restart Hessian:                                                       NO
 BFGS| Trust radius:                                                       0.472

 *******************************************************************************
 ***                     STARTING   CELL   OPTIMIZATION                      ***
 ***                                   BFGS                                  ***
 *******************************************************************************

 CELL| Volume [angstrom^3]:                                           224.074792
 CELL| Vector a [angstrom]:       3.604     0.000     0.000   |a| =     3.604000
 CELL| Vector b [angstrom]:       0.000     9.041     0.000   |b| =     9.041000
 CELL| Vector c [angstrom]:      -1.275     0.000     6.877   |c| =     6.994000
 CELL| Angle (b,c), alpha [degree]:                                    90.000000
 CELL| Angle (a,c), beta  [degree]:                                   100.500000
 CELL| Angle (a,b), gamma [degree]:                                    90.000000
 CELL| Numerically orthorhombic:                                              NO
 CELL| Periodicity                                                           XYZ

 Extrapolation method: initial_guess

 Number of electrons:                                                         72
 Number of occupied orbitals:                                                 36
 Number of molecular orbitals:                                                72

 Number of orbital functions:                                                 72
 Number of independent orbital functions:                                     72


 SCF WAVEFUNCTION OPTIMIZATION

  Step     Update method      Time    Convergence         Total energy    Change
  ------------------------------------------------------------------------------
     1 TBLite/Diag 0.40E+00    0.0     1.57012312       -45.6652930752 -4.57E+01
     2 TBLite/Diag 0.40E+00    0.0     0.24287993       -46.4246879462 -7.59E-01
     3 TBLite/Diag 0.40E+00    0.0     0.07401948       -46.4416883630 -1.70E-02
     4 TBLite/Diag 0.40E+00    0.0     0.02770856       -46.4441143951 -2.43E-03
     5 TBLite/Diag 0.40E+00    0.0     0.00363803       -46.4442657221 -1.51E-04
     6 TBLite/Diag 0.40E+00    0.0     0.00291364       -46.4442975019 -3.18E-05
     7 TBLite/Diag 0.40E+00    0.0     0.00057751       -46.4442979393 -4.37E-07
     8 TBLite/Diag 0.40E+00    0.0     0.00033412       -46.4442983077 -3.68E-07
     9 TBLite/Diag 0.40E+00    0.0     0.00007697       -46.4442983320 -2.43E-08
    10 TBLite/Diag 0.40E+00    0.0     0.00001379       -46.4442983325 -5.39E-10
    11 TBLite/Diag 0.40E+00    0.0     0.00000335       -46.4442983326 -6.44E-11
    12 TBLite/Diag 0.40E+00    0.0     6.9087E-09       -46.4442983326 -7.11E-14
    13 TBLite/Diag 0.40E+00    0.0     1.2510E-10       -46.4442983326  1.42E-14

  *** SCF run converged in    13 steps ***


  Core Hamiltonian energy:                                    -47.48528469531782
  Repulsive potential energy:                                   0.80578396764126
  Electrostatic energy:                                         0.27238660928573
  Self-consistent dispersion energy:                            0.00000000000000
  Non-self consistent dispersion energy:                       -0.03718421417306
  Correction for halogen bonding:                               0.00000000000000
  Electronic entropic energy:                                  -0.00000000000000
  Fermi energy:                                                -0.28354479556564

  Total energy:                                               -46.44429833256389
  Total energy (extrapolated to T->0):                        -46.44429833256389

 ENERGY| Total FORCE_EVAL ( QS ) energy [hartree]            -46.444298332563889

 OPT| **************************************************************************
 OPT| Step number                                                              0
 OPT| Optimization method                                                   BFGS
 OPT| Total energy [hartree]                                      -46.4442983326
 OPT| Internal pressure [bar]                                  202706.7511841091
 OPT| Used time [s]                                                        0.262
 OPT| **************************************************************************
 OPT| Estimated peak process memory [MiB]                                    166

 --------------------------
 OPTIMIZATION STEP:      1
 --------------------------

 CELL| Volume [angstrom^3]:                                           229.896602
 CELL| Vector a [angstrom]:       3.657     0.000     0.000   |a| =     3.656770
 CELL| Vector b [angstrom]:       0.000     9.072     0.000   |b| =     9.071576
 CELL| Vector c [angstrom]:      -1.307     0.000     6.930   |c| =     7.052458
 CELL| Angle (b,c), alpha [degree]:                                    90.000000
 CELL| Angle (a,c), beta  [degree]:                                   100.679583
 CELL| Angle (a,b), gamma [degree]:                                    90.000000
 CELL| Numerically orthorhombic:                                              NO
 CELL| Periodicity                                                           XYZ

 Extrapolation method: ASPC

 Number of electrons:                                                         72
 Number of occupied orbitals:                                                 36
 Number of molecular orbitals:                                                72

 Number of orbital functions:                                                 72
 Number of independent orbital functions:                                     72


 SCF WAVEFUNCTION OPTIMIZATION

  Step     Update method      Time    Convergence         Total energy    Change
  ------------------------------------------------------------------------------
     1 TBLite/Diag 0.40E+00    0.0     0.13403379       -46.5783821463 -4.66E+01
     2 TBLite/Diag 0.40E+00    0.0     0.01897142       -46.5808222485 -2.44E-03
     3 TBLite/Diag 0.40E+00    0.0     0.00307634       -46.5808890588 -6.68E-05
     4 TBLite/Diag 0.40E+00    0.0     0.00188670       -46.5808959130 -6.85E-06
     5 TBLite/Diag 0.40E+00    0.0     0.00035075       -46.5808965538 -6.41E-07
     6 TBLite/Diag 0.40E+00    0.0     0.00025583       -46.5808967418 -1.88E-07
     7 TBLite/Diag 0.40E+00    0.0     0.00001475       -46.5808967425 -7.67E-10
     8 TBLite/Diag 0.40E+00    0.0     0.00000035       -46.5808967425 -9.02E-13
     9 TBLite/Diag 0.40E+00    0.0     0.00000006       -46.5808967425  2.84E-14
    10 TBLite/Diag 0.40E+00    0.0     2.4185E-09       -46.5808967425 -7.11E-14
    11 TBLite/Diag 0.40E+00    0.0     1.5185E-09       -46.5808967425  1.49E-13
    12 TBLite/Diag 0.40E+00    0.0     5.2995E-12       -46.5808967425 -7.82E-14

  *** SCF run converged in    12 steps ***


  Core Hamiltonian energy:                                    -47.37270188650628
  Repulsive potential energy:                                   0.55352936877050
  Electrostatic energy:                                         0.27446519348083
  Self-consistent dispersion energy:                            0.00000000000000
  Non-self consistent dispersion energy:                       -0.03618941829225
  Correction for halogen bonding:                               0.00000000000000
  Electronic entropic energy:                                  -0.00000000000000
  Fermi energy:                                                -0.25227558685737

  Total energy:                                               -46.58089674254720
  Total energy (extrapolated to T->0):                        -46.58089674254720

 ENERGY| Total FORCE_EVAL ( QS ) energy [hartree]            -46.580896742547196

 OPT| **************************************************************************
 OPT| Step number                                                              1
 OPT| Optimization method                                                   BFGS
 OPT| Total energy [hartree]                                      -46.5808967425
 OPT| Internal pressure [bar]                                   89752.3469318867
 OPT| Effective energy change [hartree]                            -0.1365984100
 OPT| Predicted energy change [hartree]                            -0.2112828366
 OPT| Scaling factor                                                0.0000000000
 OPT| Step size                                                     0.1697930310
 OPT| Trust radius                                                  0.4724315332
 OPT| Decrease in energy                                                     YES
 OPT| Used time [s]                                                        0.262
 OPT|
 OPT| Maximum step size                                             0.1697930310
 OPT| Convergence limit for maximum step size                       0.0030000000
 OPT| Maximum step size is converged                                          NO
 OPT|
 OPT| RMS step size                                                 0.0736037270
 OPT| Convergence limit for RMS step size                           0.0015000000
 OPT| RMS step size is converged                                              NO
 OPT|
 OPT| Maximum gradient                                              0.0950453186
 OPT| Convergence limit for maximum gradient                        0.0004500000
 OPT| Maximum gradient is converged                                           NO
 OPT|
 OPT| RMS gradient                                                  0.0369152482
 OPT| Convergence limit for RMS gradient                            0.0003000000
 OPT| RMS gradient is converged                                               NO
 OPT|
 OPT| Pressure deviation [bar]                                  89752.3469318867
 OPT| Pressure tolerance [bar]                                    100.0000000000
 OPT| Pressure is converged                                                   NO
 OPT| **************************************************************************
 OPT| Estimated peak process memory after this step [MiB]                    167

 --------------------------
 OPTIMIZATION STEP:      2
 --------------------------

 CELL| Volume [angstrom^3]:                                           232.840225
 CELL| Vector a [angstrom]:       3.682     0.000     0.000   |a| =     3.681804
 CELL| Vector b [angstrom]:       0.000     9.090     0.000   |b| =     9.090164
 CELL| Vector c [angstrom]:      -1.316     0.000     6.957   |c| =     7.080386
 CELL| Angle (b,c), alpha [degree]:                                    90.000000
 CELL| Angle (a,c), beta  [degree]:                                   100.709609
 CELL| Angle (a,b), gamma [degree]:                                    90.000000
 CELL| Numerically orthorhombic:                                              NO
 CELL| Periodicity                                                           XYZ

 Extrapolation method: ASPC

 Number of electrons:                                                         72
 Number of occupied orbitals:                                                 36
 Number of molecular orbitals:                                                72

 Number of orbital functions:                                                 72
 Number of independent orbital functions:                                     72


 SCF WAVEFUNCTION OPTIMIZATION

  Step     Update method      Time    Convergence         Total energy    Change
  ------------------------------------------------------------------------------
     1 TBLite/Diag 0.40E+00    0.0     0.08945298       -46.6167301369 -4.66E+01
     2 TBLite/Diag 0.40E+00    0.0     0.02669261       -46.6197122862 -2.98E-03
     3 TBLite/Diag 0.40E+00    0.0     0.00283857       -46.6197533832 -4.11E-05
     4 TBLite/Diag 0.40E+00    0.0     0.00114045       -46.6197543642 -9.81E-07
     5 TBLite/Diag 0.40E+00    0.0     0.00035690       -46.6197551878 -8.24E-07
     6 TBLite/Diag 0.40E+00    0.0     0.00016893       -46.6197552436 -5.58E-08
     7 TBLite/Diag 0.40E+00    0.0     0.00000912       -46.6197552440 -3.68E-10
     8 TBLite/Diag 0.40E+00    0.0     0.00000212       -46.6197552440 -3.46E-11
     9 TBLite/Diag 0.40E+00    0.0     0.00000008       -46.6197552440 -1.42E-13
    10 TBLite/Diag 0.40E+00    0.0     8.1689E-09       -46.6197552440  4.97E-14
    11 TBLite/Diag 0.40E+00    0.0     1.6448E-09       -46.6197552440 -7.11E-15
    12 TBLite/Diag 0.40E+00    0.0     1.5397E-11       -46.6197552440  6.39E-14

  *** SCF run converged in    12 steps ***


  Core Hamiltonian energy:                                    -47.31045069360746
  Repulsive potential energy:                                   0.46272691151153
  Electrostatic energy:                                         0.26370268571259
  Self-consistent dispersion energy:                            0.00000000000000
  Non-self consistent dispersion energy:                       -0.03573414765158
  Correction for halogen bonding:                               0.00000000000000
  Electronic entropic energy:                                  -0.00000000000000
  Fermi energy:                                                -0.27703265260631

  Total energy:                                               -46.61975524403491
  Total energy (extrapolated to T->0):                        -46.61975524403491

 ENERGY| Total FORCE_EVAL ( QS ) energy [hartree]            -46.619755244034913

 OPT| **************************************************************************
 OPT| Step number                                                              2
 OPT| Optimization method                                                   BFGS
 OPT| Total energy [hartree]                                      -46.6197552440
 OPT| Internal pressure [bar]                                   14258.8641273673
 OPT| Effective energy change [hartree]                            -0.0388585015
 OPT| Predicted energy change [hartree]                            -0.0378420554
 OPT| Scaling factor                                                0.0000000000
 OPT| Step size                                                     0.0604356721
 OPT| Trust radius                                                  0.4724315332
 OPT| Decrease in energy                                                     YES
 OPT| Used time [s]                                                        0.262
 OPT|
 OPT| Maximum step size                                             0.0604356721
 OPT| Convergence limit for maximum step size                       0.0030000000
 OPT| Maximum step size is converged                                          NO
 OPT|
 OPT| RMS step size                                                 0.0280104040
 OPT| Convergence limit for RMS step size                           0.0015000000
 OPT| RMS step size is converged                                              NO
 OPT|
 OPT| Maximum gradient                                              0.0329875878
 OPT| Convergence limit for maximum gradient                        0.0004500000
 OPT| Maximum gradient is converged                                           NO
 OPT|
 OPT| RMS gradient                                                  0.0072285000
 OPT| Convergence limit for RMS gradient                            0.0003000000
 OPT| RMS gradient is converged                                               NO
 OPT|
 OPT| Pressure deviation [bar]                                  14258.8641273673
 OPT| Pressure tolerance [bar]                                    100.0000000000
 OPT| Pressure is converged                                                   NO
 OPT| **************************************************************************
 OPT| Estimated peak process memory after this step [MiB]                    167

 --------------------------
 OPTIMIZATION STEP:      3
 --------------------------

 CELL| Volume [angstrom^3]:                                           234.246490
 CELL| Vector a [angstrom]:       3.702     0.000     0.000   |a| =     3.702488
 CELL| Vector b [angstrom]:       0.000     9.089     0.000   |b| =     9.089141
 CELL| Vector c [angstrom]:      -1.320     0.000     6.961   |c| =     7.084822
 CELL| Angle (b,c), alpha [degree]:                                    90.000000
 CELL| Angle (a,c), beta  [degree]:                                   100.738202
 CELL| Angle (a,b), gamma [degree]:                                    90.000000
 CELL| Numerically orthorhombic:                                              NO
 CELL| Periodicity                                                           XYZ

 Extrapolation method: ASPC

 Number of electrons:                                                         72
 Number of occupied orbitals:                                                 36
 Number of molecular orbitals:                                                72

 Number of orbital functions:                                                 72
 Number of independent orbital functions:                                     72


 SCF WAVEFUNCTION OPTIMIZATION

  Step     Update method      Time    Convergence         Total energy    Change
  ------------------------------------------------------------------------------
     1 TBLite/Diag 0.40E+00    0.0     0.02415599       -46.6221440675 -4.66E+01
     2 TBLite/Diag 0.40E+00    0.0     0.00881550       -46.6224113933 -2.67E-04
     3 TBLite/Diag 0.40E+00    0.0     0.00097635       -46.6224186298 -7.24E-06
     4 TBLite/Diag 0.40E+00    0.0     0.00034700       -46.6224188261 -1.96E-07
     5 TBLite/Diag 0.40E+00    0.0     0.00012952       -46.6224189159 -8.98E-08
     6 TBLite/Diag 0.40E+00    0.0     0.00004879       -46.6224189248 -8.87E-09
     7 TBLite/Diag 0.40E+00    0.0     0.00000478       -46.6224189249 -7.73E-11
     8 TBLite/Diag 0.40E+00    0.0     0.00000043       -46.6224189249 -1.28E-12
     9 TBLite/Diag 0.40E+00    0.0     0.00000004       -46.6224189249  1.42E-14
    10 TBLite/Diag 0.40E+00    0.0     1.0150E-09       -46.6224189249 -8.53E-14
    11 TBLite/Diag 0.40E+00    0.0     3.1591E-10       -46.6224189249  5.68E-14

  *** SCF run converged in    11 steps ***


  Core Hamiltonian energy:                                    -47.29868121534243
  Repulsive potential energy:                                   0.44365612470024
  Electrostatic energy:                                         0.26811733999133
  Self-consistent dispersion energy:                            0.00000000000000
  Non-self consistent dispersion energy:                       -0.03551117423295
  Correction for halogen bonding:                               0.00000000000000
  Electronic entropic energy:                                  -0.00000000000000
  Fermi energy:                                                -0.28234125140594

  Total energy:                                               -46.62241892488380
  Total energy (extrapolated to T->0):                        -46.62241892488380

 ENERGY| Total FORCE_EVAL ( QS ) energy [hartree]            -46.622418924883803

 OPT| **************************************************************************
 OPT| Step number                                                              3
 OPT| Optimization method                                                   BFGS
 OPT| Total energy [hartree]                                      -46.6224189249
 OPT| Internal pressure [bar]                                   -4616.2129834132
 OPT| Effective energy change [hartree]                            -0.0026636808
 OPT| Predicted energy change [hartree]                            -0.0022600715
 OPT| Scaling factor                                                0.0000000000
 OPT| Step size                                                     0.0390877327
 OPT| Trust radius                                                  0.4724315332
 OPT| Decrease in energy                                                     YES
 OPT| Used time [s]                                                        0.259
 OPT|
 OPT| Maximum step size                                             0.0390877327
 OPT| Convergence limit for maximum step size                       0.0030000000
 OPT| Maximum step size is converged                                          NO
 OPT|
 OPT| RMS step size                                                 0.0081394861
 OPT| Convergence limit for RMS step size                           0.0015000000
 OPT| RMS step size is converged                                              NO
 OPT|
 OPT| Maximum gradient                                              0.0258953066
 OPT| Convergence limit for maximum gradient                        0.0004500000
 OPT| Maximum gradient is converged                                           NO
 OPT|
 OPT| RMS gradient                                                  0.0044096383
 OPT| Convergence limit for RMS gradient                            0.0003000000
 OPT| RMS gradient is converged                                               NO
 OPT|
 OPT| Pressure deviation [bar]                                  -4616.2129834132
 OPT| Pressure tolerance [bar]                                    100.0000000000
 OPT| Pressure is converged                                                   NO
 OPT| **************************************************************************
 OPT| Estimated peak process memory after this step [MiB]                    168

 --------------------------
 OPTIMIZATION STEP:      4
 --------------------------

 CELL| Volume [angstrom^3]:                                           235.748981
 CELL| Vector a [angstrom]:       3.729     0.000     0.000   |a| =     3.729411
 CELL| Vector b [angstrom]:       0.000     9.080     0.000   |b| =     9.080168
 CELL| Vector c [angstrom]:      -1.325     0.000     6.962   |c| =     7.086664
 CELL| Angle (b,c), alpha [degree]:                                    90.000000
 CELL| Angle (a,c), beta  [degree]:                                   100.775500
 CELL| Angle (a,b), gamma [degree]:                                    90.000000
 CELL| Numerically orthorhombic:                                              NO
 CELL| Periodicity                                                           XYZ

 Extrapolation method: ASPC

 Number of electrons:                                                         72
 Number of occupied orbitals:                                                 36
 Number of molecular orbitals:                                                72

 Number of orbital functions:                                                 72
 Number of independent orbital functions:                                     72


 SCF WAVEFUNCTION OPTIMIZATION

  Step     Update method      Time    Convergence         Total energy    Change
  ------------------------------------------------------------------------------
     1 TBLite/Diag 0.40E+00    0.0     0.00575339       -46.6242173531 -4.66E+01
     2 TBLite/Diag 0.40E+00    0.0     0.00167608       -46.6242286805 -1.13E-05
     3 TBLite/Diag 0.40E+00    0.0     0.00018666       -46.6242288342 -1.54E-07
     4 TBLite/Diag 0.40E+00    0.0     0.00006293       -46.6242288440 -9.83E-09
     5 TBLite/Diag 0.40E+00    0.0     0.00002942       -46.6242288485 -4.51E-09
     6 TBLite/Diag 0.40E+00    0.0     0.00001273       -46.6242288489 -3.54E-10
     7 TBLite/Diag 0.40E+00    0.0     0.00000098       -46.6242288489 -4.79E-12
     8 TBLite/Diag 0.40E+00    0.0     0.00000002       -46.6242288489 -1.42E-14
     9 TBLite/Diag 0.40E+00    0.0     9.1395E-09       -46.6242288489  8.53E-14
    10 TBLite/Diag 0.40E+00    0.0     3.1600E-11       -46.6242288489 -1.42E-14

  *** SCF run converged in    10 steps ***


  Core Hamiltonian energy:                                    -47.29559525617275
  Repulsive potential energy:                                   0.43975313370830
  Electrostatic energy:                                         0.26688259034750
  Self-consistent dispersion energy:                            0.00000000000000
  Non-self consistent dispersion energy:                       -0.03526931675175
  Correction for halogen bonding:                               0.00000000000000
  Electronic entropic energy:                                  -0.00000000000000
  Fermi energy:                                                -0.28299761473386

  Total energy:                                               -46.62422884886870
  Total energy (extrapolated to T->0):                        -46.62422884886870

 ENERGY| Total FORCE_EVAL ( QS ) energy [hartree]            -46.624228848868704

 OPT| **************************************************************************
 OPT| Step number                                                              4
 OPT| Optimization method                                                   BFGS
 OPT| Total energy [hartree]                                      -46.6242288489
 OPT| Internal pressure [bar]                                   -9495.0675400182
 OPT| Effective energy change [hartree]                            -0.0018099240
 OPT| Predicted energy change [hartree]                            -0.0011203288
 OPT| Scaling factor                                                0.0000000000
 OPT| Step size                                                     0.0508758955
 OPT| Trust radius                                                  0.4724315332
 OPT| Decrease in energy                                                     YES
 OPT| Used time [s]                                                        0.256
 OPT|
 OPT| Maximum step size                                             0.0508758955
 OPT| Convergence limit for maximum step size                       0.0030000000
 OPT| Maximum step size is converged                                          NO
 OPT|
 OPT| RMS step size                                                 0.0076001271
 OPT| Convergence limit for RMS step size                           0.0015000000
 OPT| RMS step size is converged                                              NO
 OPT|
 OPT| Maximum gradient                                              0.0228167815
 OPT| Convergence limit for maximum gradient                        0.0004500000
 OPT| Maximum gradient is converged                                           NO
 OPT|
 OPT| RMS gradient                                                  0.0040207587
 OPT| Convergence limit for RMS gradient                            0.0003000000
 OPT| RMS gradient is converged                                               NO
 OPT|
 OPT| Pressure deviation [bar]                                  -9495.0675400182
 OPT| Pressure tolerance [bar]                                    100.0000000000
 OPT| Pressure is converged                                                   NO
 OPT| **************************************************************************
 OPT| Estimated peak process memory after this step [MiB]                    168

 --------------------------
 OPTIMIZATION STEP:      5
 --------------------------

 CELL| Volume [angstrom^3]:                                           239.593039
 CELL| Vector a [angstrom]:       3.805     0.000     0.000   |a| =     3.804900
 CELL| Vector b [angstrom]:       0.000     9.051     0.000   |b| =     9.051095
 CELL| Vector c [angstrom]:      -1.337    -0.000     6.957   |c| =     7.084428
 CELL| Angle (b,c), alpha [degree]:                                    90.000000
 CELL| Angle (a,c), beta  [degree]:                                   100.878216
 CELL| Angle (a,b), gamma [degree]:                                    90.000000
 CELL| Numerically orthorhombic:                                              NO
 CELL| Periodicity                                                           XYZ

 Extrapolation method: ASPC

 Number of electrons:                                                         72
 Number of occupied orbitals:                                                 36
 Number of molecular orbitals:                                                72

 Number of orbital functions:                                                 72
 Number of independent orbital functions:                                     72


 SCF WAVEFUNCTION OPTIMIZATION

  Step     Update method      Time    Convergence         Total energy    Change
  ------------------------------------------------------------------------------
     1 TBLite/Diag 0.40E+00    0.0     0.00965000       -46.6274465612 -4.66E+01
     2 TBLite/Diag 0.40E+00    0.0     0.00144862       -46.6274555135 -8.95E-06
     3 TBLite/Diag 0.40E+00    0.0     0.00022098       -46.6274557730 -2.60E-07
     4 TBLite/Diag 0.40E+00    0.0     0.00010710       -46.6274558186 -4.56E-08
     5 TBLite/Diag 0.40E+00    0.0     0.00003402       -46.6274558241 -5.54E-09
     6 TBLite/Diag 0.40E+00    0.0     0.00001856       -46.6274558252 -1.00E-09
     7 TBLite/Diag 0.40E+00    0.0     0.00000081       -46.6274558252 -2.22E-12
     8 TBLite/Diag 0.40E+00    0.0     0.00000004       -46.6274558252 -2.13E-14
     9 TBLite/Diag 0.40E+00    0.0     0.00000003       -46.6274558252  3.55E-14
    10 TBLite/Diag 0.40E+00    0.0     3.6810E-11       -46.6274558252  2.13E-14

  *** SCF run converged in    10 steps ***


  Core Hamiltonian energy:                                    -47.29554791389285
  Repulsive potential energy:                                   0.43708689628850
  Electrostatic energy:                                         0.26565590920991
  Self-consistent dispersion energy:                            0.00000000000000
  Non-self consistent dispersion energy:                       -0.03465071676175
  Correction for halogen bonding:                               0.00000000000000
  Electronic entropic energy:                                  -0.00000000000000
  Fermi energy:                                                -0.28311789938717

  Total energy:                                               -46.62745582515619
  Total energy (extrapolated to T->0):                        -46.62745582515619

 ENERGY| Total FORCE_EVAL ( QS ) energy [hartree]            -46.627455825156190

 OPT| **************************************************************************
 OPT| Step number                                                              5
 OPT| Optimization method                                                   BFGS
 OPT| Total energy [hartree]                                      -46.6274558252
 OPT| Internal pressure [bar]                                  -15638.6440359037
 OPT| Effective energy change [hartree]                            -0.0032269763
 OPT| Predicted energy change [hartree]                            -0.0022994968
 OPT| Scaling factor                                                0.0000000000
 OPT| Step size                                                     0.1426543932
 OPT| Trust radius                                                  0.4724315332
 OPT| Decrease in energy                                                     YES
 OPT| Used time [s]                                                        0.255
 OPT|
 OPT| Maximum step size                                             0.1426543932
 OPT| Convergence limit for maximum step size                       0.0030000000
 OPT| Maximum step size is converged                                          NO
 OPT|
 OPT| RMS step size                                                 0.0196065650
 OPT| Convergence limit for RMS step size                           0.0015000000
 OPT| RMS step size is converged                                              NO
 OPT|
 OPT| Maximum gradient                                              0.0148455942
 OPT| Convergence limit for maximum gradient                        0.0004500000
 OPT| Maximum gradient is converged                                           NO
 OPT|
 OPT| RMS gradient                                                  0.0046389320
 OPT| Convergence limit for RMS gradient                            0.0003000000
 OPT| RMS gradient is converged                                               NO
 OPT|
 OPT| Pressure deviation [bar]                                 -15638.6440359037
 OPT| Pressure tolerance [bar]                                    100.0000000000
 OPT| Pressure is converged                                                   NO
 OPT| **************************************************************************
 OPT| Estimated peak process memory after this step [MiB]                    168

 --------------------------
 OPTIMIZATION STEP:      6
 --------------------------

 CELL| Volume [angstrom^3]:                                           243.161318
 CELL| Vector a [angstrom]:       3.883     0.000     0.000   |a| =     3.882640
 CELL| Vector b [angstrom]:      -0.000     9.017     0.000   |b| =     9.017425
 CELL| Vector c [angstrom]:      -1.348     0.000     6.945   |c| =     7.074883
 CELL| Angle (b,c), alpha [degree]:                                    90.000000
 CELL| Angle (a,c), beta  [degree]:                                   100.987122
 CELL| Angle (a,b), gamma [degree]:                                    90.000000
 CELL| Numerically orthorhombic:                                              NO
 CELL| Periodicity                                                           XYZ

 Extrapolation method: ASPC

 Number of electrons:                                                         72
 Number of occupied orbitals:                                                 36
 Number of molecular orbitals:                                                72

 Number of orbital functions:                                                 72
 Number of independent orbital functions:                                     72


 SCF WAVEFUNCTION OPTIMIZATION

  Step     Update method      Time    Convergence         Total energy    Change
  ------------------------------------------------------------------------------
     1 TBLite/Diag 0.40E+00    0.0     0.01134942       -46.6298912891 -4.66E+01
     2 TBLite/Diag 0.40E+00    0.0     0.00027286       -46.6298917674 -4.78E-07
     3 TBLite/Diag 0.40E+00    0.0     0.00014930       -46.6298918449 -7.75E-08
     4 TBLite/Diag 0.40E+00    0.0     0.00004427       -46.6298918557 -1.07E-08
     5 TBLite/Diag 0.40E+00    0.0     0.00001646       -46.6298918561 -4.63E-10
     6 TBLite/Diag 0.40E+00    0.0     0.00000222       -46.6298918561 -3.25E-11
     7 TBLite/Diag 0.40E+00    0.0     0.00000066       -46.6298918561 -2.30E-12
     8 TBLite/Diag 0.40E+00    0.0     4.5399E-10       -46.6298918561  1.14E-13

  *** SCF run converged in     8 steps ***


  Core Hamiltonian energy:                                    -47.30147234066497
  Repulsive potential energy:                                   0.44012939486980
  Electrostatic energy:                                         0.26552877216097
  Self-consistent dispersion energy:                            0.00000000000000
  Non-self consistent dispersion energy:                       -0.03407768251568
  Correction for halogen bonding:                               0.00000000000000
  Electronic entropic energy:                                  -0.00000000000000
  Fermi energy:                                                -0.28193193969069

  Total energy:                                               -46.62989185614988
  Total energy (extrapolated to T->0):                        -46.62989185614988

 ENERGY| Total FORCE_EVAL ( QS ) energy [hartree]            -46.629891856149875

 OPT| **************************************************************************
 OPT| Step number                                                              6
 OPT| Optimization method                                                   BFGS
 OPT| Total energy [hartree]                                      -46.6298918561
 OPT| Internal pressure [bar]                                  -16312.7143754448
 OPT| Effective energy change [hartree]                            -0.0024360310
 OPT| Predicted energy change [hartree]                            -0.0016725294
 OPT| Scaling factor                                                0.0000000000
 OPT| Step size                                                     0.1469066478
 OPT| Trust radius                                                  0.4724315332
 OPT| Decrease in energy                                                     YES
 OPT| Used time [s]                                                        0.246
 OPT|
 OPT| Maximum step size                                             0.1469066478
 OPT| Convergence limit for maximum step size                       0.0030000000
 OPT| Maximum step size is converged                                          NO
 OPT|
 OPT| RMS step size                                                 0.0197941596
 OPT| Convergence limit for RMS step size                           0.0015000000
 OPT| RMS step size is converged                                              NO
 OPT|
 OPT| Maximum gradient                                              0.0148866308
 OPT| Convergence limit for maximum gradient                        0.0004500000
 OPT| Maximum gradient is converged                                           NO
 OPT|
 OPT| RMS gradient                                                  0.0045067560
 OPT| Convergence limit for RMS gradient                            0.0003000000
 OPT| RMS gradient is converged                                               NO
 OPT|
 OPT| Pressure deviation [bar]                                 -16312.7143754448
 OPT| Pressure tolerance [bar]                                    100.0000000000
 OPT| Pressure is converged                                                   NO
 OPT| **************************************************************************
 OPT| Estimated peak process memory after this step [MiB]                    168

 --------------------------
 OPTIMIZATION STEP:      7
 --------------------------

 CELL| Volume [angstrom^3]:                                           246.031076
 CELL| Vector a [angstrom]:       3.955     0.000     0.000   |a| =     3.954915
 CELL| Vector b [angstrom]:       0.000     8.983     0.000   |b| =     8.983234
 CELL| Vector c [angstrom]:      -1.358     0.000     6.925   |c| =     7.056896
 CELL| Angle (b,c), alpha [degree]:                                    90.000000
 CELL| Angle (a,c), beta  [degree]:                                   101.094752
 CELL| Angle (a,b), gamma [degree]:                                    90.000000
 CELL| Numerically orthorhombic:                                              NO
 CELL| Periodicity                                                           XYZ

 Extrapolation method: ASPC

 Number of electrons:                                                         72
 Number of occupied orbitals:                                                 36
 Number of molecular orbitals:                                                72

 Number of orbital functions:                                                 72
 Number of independent orbital functions:                                     72


 SCF WAVEFUNCTION OPTIMIZATION

  Step     Update method      Time    Convergence         Total energy    Change
  ------------------------------------------------------------------------------
     1 TBLite/Diag 0.40E+00    0.0     0.01501967       -46.6319302700 -4.66E+01
     2 TBLite/Diag 0.40E+00    0.0     0.00126865       -46.6319388598 -8.59E-06
     3 TBLite/Diag 0.40E+00    0.0     0.00024289       -46.6319390586 -1.99E-07
     4 TBLite/Diag 0.40E+00    0.0     0.00012076       -46.6319390692 -1.06E-08
     5 TBLite/Diag 0.40E+00    0.0     0.00004036       -46.6319390727 -3.49E-09
     6 TBLite/Diag 0.40E+00    0.0     0.00000278       -46.6319390728 -6.59E-11
     7 TBLite/Diag 0.40E+00    0.0     0.00000162       -46.6319390728 -9.83E-12
     8 TBLite/Diag 0.40E+00    0.0     0.00000004       -46.6319390728  5.68E-14
     9 TBLite/Diag 0.40E+00    0.0     0.00000001       -46.6319390728 -1.42E-14
    10 TBLite/Diag 0.40E+00    0.0     1.0545E-10       -46.6319390728  5.68E-14

  *** SCF run converged in    10 steps ***


  Core Hamiltonian energy:                                    -47.31140714553280
  Repulsive potential energy:                                   0.44646425423424
  Electrostatic energy:                                         0.26661593078708
  Self-consistent dispersion energy:                            0.00000000000000
  Non-self consistent dispersion energy:                       -0.03361211226414
  Correction for halogen bonding:                               0.00000000000000
  Electronic entropic energy:                                  -0.00000000000000
  Fermi energy:                                                -0.28040603855744

  Total energy:                                               -46.63193907277562
  Total energy (extrapolated to T->0):                        -46.63193907277562

 ENERGY| Total FORCE_EVAL ( QS ) energy [hartree]            -46.631939072775616

 OPT| **************************************************************************
 OPT| Step number                                                              7
 OPT| Optimization method                                                   BFGS
 OPT| Total energy [hartree]                                      -46.6319390728
 OPT| Internal pressure [bar]                                  -12976.0430659619
 OPT| Effective energy change [hartree]                            -0.0020472166
 OPT| Predicted energy change [hartree]                            -0.0014302617
 OPT| Scaling factor                                                0.0000000000
 OPT| Step size                                                     0.1365805672
 OPT| Trust radius                                                  0.4724315332
 OPT| Decrease in energy                                                     YES
 OPT| Used time [s]                                                        0.251
 OPT|
 OPT| Maximum step size                                             0.1365805672
 OPT| Convergence limit for maximum step size                       0.0030000000
 OPT| Maximum step size is converged                                          NO
 OPT|
 OPT| RMS step size                                                 0.0189037296
 OPT| Convergence limit for RMS step size                           0.0015000000
 OPT| RMS step size is converged                                              NO
 OPT|
 OPT| Maximum gradient                                              0.0138633484
 OPT| Convergence limit for maximum gradient                        0.0004500000
 OPT| Maximum gradient is converged                                           NO
 OPT|
 OPT| RMS gradient                                                  0.0032617867
 OPT| Convergence limit for RMS gradient                            0.0003000000
 OPT| RMS gradient is converged                                               NO
 OPT|
 OPT| Pressure deviation [bar]                                 -12976.0430659619
 OPT| Pressure tolerance [bar]                                    100.0000000000
 OPT| Pressure is converged                                                   NO
 OPT| **************************************************************************
 OPT| Estimated peak process memory after this step [MiB]                    168

 --------------------------
 OPTIMIZATION STEP:      8
 --------------------------

 CELL| Volume [angstrom^3]:                                           247.356735
 CELL| Vector a [angstrom]:       3.999     0.000     0.000   |a| =     3.998907
 CELL| Vector b [angstrom]:      -0.000     8.961     0.000   |b| =     8.960508
 CELL| Vector c [angstrom]:      -1.363     0.000     6.903   |c| =     7.036447
 CELL| Angle (b,c), alpha [degree]:                                    90.000000
 CELL| Angle (a,c), beta  [degree]:                                   101.168456
 CELL| Angle (a,b), gamma [degree]:                                    90.000000
 CELL| Numerically orthorhombic:                                              NO
 CELL| Periodicity                                                           XYZ

 Extrapolation method: ASPC

 Number of electrons:                                                         72
 Number of occupied orbitals:                                                 36
 Number of molecular orbitals:                                                72

 Number of orbital functions:                                                 72
 Number of independent orbital functions:                                     72


 SCF WAVEFUNCTION OPTIMIZATION

  Step     Update method      Time    Convergence         Total energy    Change
  ------------------------------------------------------------------------------
     1 TBLite/Diag 0.40E+00    0.0     0.01201419       -46.6331314193 -4.66E+01
     2 TBLite/Diag 0.40E+00    0.0     0.00134431       -46.6331405232 -9.10E-06
     3 TBLite/Diag 0.40E+00    0.0     0.00027053       -46.6331407450 -2.22E-07
     4 TBLite/Diag 0.40E+00    0.0     0.00011757       -46.6331407554 -1.04E-08
     5 TBLite/Diag 0.40E+00    0.0     0.00002936       -46.6331407597 -4.30E-09
     6 TBLite/Diag 0.40E+00    0.0     0.00001234       -46.6331407603 -6.38E-10
     7 TBLite/Diag 0.40E+00    0.0     0.00000140       -46.6331407604 -7.67E-12
     8 TBLite/Diag 0.40E+00    0.0     8.3288E-09       -46.6331407604 -9.24E-14
     9 TBLite/Diag 0.40E+00    0.0     7.0463E-09       -46.6331407604  7.11E-15
    10 TBLite/Diag 0.40E+00    0.0     3.6991E-11       -46.6331407604  8.53E-14

  *** SCF run converged in    10 steps ***


  Core Hamiltonian energy:                                    -47.31967509912497
  Repulsive potential energy:                                   0.45214699240504
  Electrostatic energy:                                         0.26777621041433
  Self-consistent dispersion energy:                            0.00000000000000
  Non-self consistent dispersion energy:                       -0.03338886405003
  Correction for halogen bonding:                               0.00000000000000
  Electronic entropic energy:                                  -0.00000000000000
  Fermi energy:                                                -0.27962099387864

  Total energy:                                               -46.63314076035563
  Total energy (extrapolated to T->0):                        -46.63314076035563

 ENERGY| Total FORCE_EVAL ( QS ) energy [hartree]            -46.633140760355630

 OPT| **************************************************************************
 OPT| Step number                                                              8
 OPT| Optimization method                                                   BFGS
 OPT| Total energy [hartree]                                      -46.6331407604
 OPT| Internal pressure [bar]                                   -9019.0828553274
 OPT| Effective energy change [hartree]                            -0.0012016876
 OPT| Predicted energy change [hartree]                            -0.0008332042
 OPT| Scaling factor                                                0.0000000000
 OPT| Step size                                                     0.0831315409
 OPT| Trust radius                                                  0.4724315332
 OPT| Decrease in energy                                                     YES
 OPT| Used time [s]                                                        0.251
 OPT|
 OPT| Maximum step size                                             0.0831315409
 OPT| Convergence limit for maximum step size                       0.0030000000
 OPT| Maximum step size is converged                                          NO
 OPT|
 OPT| RMS step size                                                 0.0127106400
 OPT| Convergence limit for RMS step size                           0.0015000000
 OPT| RMS step size is converged                                              NO
 OPT|
 OPT| Maximum gradient                                              0.0106727585
 OPT| Convergence limit for maximum gradient                        0.0004500000
 OPT| Maximum gradient is converged                                           NO
 OPT|
 OPT| RMS gradient                                                  0.0024791452
 OPT| Convergence limit for RMS gradient                            0.0003000000
 OPT| RMS gradient is converged                                               NO
 OPT|
 OPT| Pressure deviation [bar]                                  -9019.0828553274
 OPT| Pressure tolerance [bar]                                    100.0000000000
 OPT| Pressure is converged                                                   NO
 OPT| **************************************************************************
 OPT| Estimated peak process memory after this step [MiB]                    168

 --------------------------
 OPTIMIZATION STEP:      9
 --------------------------

 CELL| Volume [angstrom^3]:                                           248.035446
 CELL| Vector a [angstrom]:       4.031     0.000     0.000   |a| =     4.031299
 CELL| Vector b [angstrom]:       0.000     8.943     0.000   |b| =     8.942972
 CELL| Vector c [angstrom]:      -1.367     0.000     6.880   |c| =     7.014396
 CELL| Angle (b,c), alpha [degree]:                                    90.000000
 CELL| Angle (a,c), beta  [degree]:                                   101.234966
 CELL| Angle (a,b), gamma [degree]:                                    90.000000
 CELL| Numerically orthorhombic:                                              NO
 CELL| Periodicity                                                           XYZ

 Extrapolation method: ASPC

 Number of electrons:                                                         72
 Number of occupied orbitals:                                                 36
 Number of molecular orbitals:                                                72

 Number of orbital functions:                                                 72
 Number of independent orbital functions:                                     72


 SCF WAVEFUNCTION OPTIMIZATION

  Step     Update method      Time    Convergence         Total energy    Change
  ------------------------------------------------------------------------------
     1 TBLite/Diag 0.40E+00    0.0     0.00828390       -46.6339529557 -4.66E+01
     2 TBLite/Diag 0.40E+00    0.0     0.00063580       -46.6339557332 -2.78E-06
     3 TBLite/Diag 0.40E+00    0.0     0.00017954       -46.6339558594 -1.26E-07
     4 TBLite/Diag 0.40E+00    0.0     0.00007208       -46.6339558617 -2.23E-09
     5 TBLite/Diag 0.40E+00    0.0     0.00003747       -46.6339558645 -2.83E-09
     6 TBLite/Diag 0.40E+00    0.0     0.00000306       -46.6339558646 -5.70E-11
     7 TBLite/Diag 0.40E+00    0.0     0.00000129       -46.6339558646 -5.49E-12
     8 TBLite/Diag 0.40E+00    0.0     0.00000001       -46.6339558646  2.13E-14
     9 TBLite/Diag 0.40E+00    0.0     4.4664E-09       -46.6339558646 -2.84E-14
    10 TBLite/Diag 0.40E+00    0.0     1.2413E-11       -46.6339558646  7.82E-14

  *** SCF run converged in    10 steps ***


  Core Hamiltonian energy:                                    -47.32427792282777
  Repulsive potential energy:                                   0.45530999224849
  Electrostatic energy:                                         0.26828041715791
  Self-consistent dispersion energy:                            0.00000000000000
  Non-self consistent dispersion energy:                       -0.03326835114588
  Correction for halogen bonding:                               0.00000000000000
  Electronic entropic energy:                                  -0.00000000000000
  Fermi energy:                                                -0.27954062587922

  Total energy:                                               -46.63395586456723
  Total energy (extrapolated to T->0):                        -46.63395586456723

 ENERGY| Total FORCE_EVAL ( QS ) energy [hartree]            -46.633955864567234

 OPT| **************************************************************************
 OPT| Step number                                                              9
 OPT| Optimization method                                                   BFGS
 OPT| Total energy [hartree]                                      -46.6339558646
 OPT| Internal pressure [bar]                                   -7004.1329900604
 OPT| Effective energy change [hartree]                            -0.0008151042
 OPT| Predicted energy change [hartree]                            -0.0005413682
 OPT| Scaling factor                                                0.0000000000
 OPT| Step size                                                     0.0612132392
 OPT| Trust radius                                                  0.4724315332
 OPT| Decrease in energy                                                     YES
 OPT| Used time [s]                                                        0.249
 OPT|
 OPT| Maximum step size                                             0.0612132392
 OPT| Convergence limit for maximum step size                       0.0030000000
 OPT| Maximum step size is converged                                          NO
 OPT|
 OPT| RMS step size                                                 0.0105715295
 OPT| Convergence limit for RMS step size                           0.0015000000
 OPT| RMS step size is converged                                              NO
 OPT|
 OPT| Maximum gradient                                              0.0076033758
 OPT| Convergence limit for maximum gradient                        0.0004500000
 OPT| Maximum gradient is converged                                           NO
 OPT|
 OPT| RMS gradient                                                  0.0025752787
 OPT| Convergence limit for RMS gradient                            0.0003000000
 OPT| RMS gradient is converged                                               NO
 OPT|
 OPT| Pressure deviation [bar]                                  -7004.1329900604
 OPT| Pressure tolerance [bar]                                    100.0000000000
 OPT| Pressure is converged                                                   NO
 OPT| **************************************************************************
 OPT| Estimated peak process memory after this step [MiB]                    168

 --------------------------
 OPTIMIZATION STEP:     10
 --------------------------

 CELL| Volume [angstrom^3]:                                           248.718391
 CELL| Vector a [angstrom]:       4.074     0.000     0.000   |a| =     4.074217
 CELL| Vector b [angstrom]:      -0.000     8.919     0.000   |b| =     8.918667
 CELL| Vector c [angstrom]:      -1.373     0.000     6.845   |c| =     6.981174
 CELL| Angle (b,c), alpha [degree]:                                    90.000000
 CELL| Angle (a,c), beta  [degree]:                                   101.341590
 CELL| Angle (a,b), gamma [degree]:                                    90.000000
 CELL| Numerically orthorhombic:                                              NO
 CELL| Periodicity                                                           XYZ

 Extrapolation method: ASPC

 Number of electrons:                                                         72
 Number of occupied orbitals:                                                 36
 Number of molecular orbitals:                                                72

 Number of orbital functions:                                                 72
 Number of independent orbital functions:                                     72


 SCF WAVEFUNCTION OPTIMIZATION

  Step     Update method      Time    Convergence         Total energy    Change
  ------------------------------------------------------------------------------
     1 TBLite/Diag 0.40E+00    0.0     0.00820276       -46.6349151751 -4.66E+01
     2 TBLite/Diag 0.40E+00    0.0     0.00047700       -46.6349166573 -1.48E-06
     3 TBLite/Diag 0.40E+00    0.0     0.00013320       -46.6349168100 -1.53E-07
     4 TBLite/Diag 0.40E+00    0.0     0.00005638       -46.6349168321 -2.21E-08
     5 TBLite/Diag 0.40E+00    0.0     0.00002768       -46.6349168340 -1.83E-09
     6 TBLite/Diag 0.40E+00    0.0     0.00000205       -46.6349168340 -5.57E-11
     7 TBLite/Diag 0.40E+00    0.0     0.00000163       -46.6349168340 -8.94E-12
     8 TBLite/Diag 0.40E+00    0.0     0.00000003       -46.6349168340  2.84E-14
     9 TBLite/Diag 0.40E+00    0.0     9.6412E-10       -46.6349168340 -3.55E-14

  *** SCF run converged in     9 steps ***


  Core Hamiltonian energy:                                    -47.32652638711922
  Repulsive potential energy:                                   0.45659013800802
  Electrostatic energy:                                         0.26816161999250
  Self-consistent dispersion energy:                            0.00000000000000
  Non-self consistent dispersion energy:                       -0.03314220490815
  Correction for halogen bonding:                               0.00000000000000
  Electronic entropic energy:                                  -0.00000000000000
  Fermi energy:                                                -0.27990246537796

  Total energy:                                               -46.63491683402684
  Total energy (extrapolated to T->0):                        -46.63491683402684

 ENERGY| Total FORCE_EVAL ( QS ) energy [hartree]            -46.634916834026839

 OPT| **************************************************************************
 OPT| Step number                                                             10
 OPT| Optimization method                                                   BFGS
 OPT| Total energy [hartree]                                      -46.6349168340
 OPT| Internal pressure [bar]                                   -6209.3575049552
 OPT| Effective energy change [hartree]                            -0.0009609695
 OPT| Predicted energy change [hartree]                            -0.0006584023
 OPT| Scaling factor                                                0.0000000000
 OPT| Step size                                                     0.0811033582
 OPT| Trust radius                                                  0.4724315332
 OPT| Decrease in energy                                                     YES
 OPT| Used time [s]                                                        0.246
 OPT|
 OPT| Maximum step size                                             0.0811033582
 OPT| Convergence limit for maximum step size                       0.0030000000
 OPT| Maximum step size is converged                                          NO
 OPT|
 OPT| RMS step size                                                 0.0150358894
 OPT| Convergence limit for RMS step size                           0.0015000000
 OPT| RMS step size is converged                                              NO
 OPT|
 OPT| Maximum gradient                                              0.0071912624
 OPT| Convergence limit for maximum gradient                        0.0004500000
 OPT| Maximum gradient is converged                                           NO
 OPT|
 OPT| RMS gradient                                                  0.0026746423
 OPT| Convergence limit for RMS gradient                            0.0003000000
 OPT| RMS gradient is converged                                               NO
 OPT|
 OPT| Pressure deviation [bar]                                  -6209.3575049552
 OPT| Pressure tolerance [bar]                                    100.0000000000
 OPT| Pressure is converged                                                   NO
 OPT| **************************************************************************
 OPT| Estimated peak process memory after this step [MiB]                    168

 --------------------------
 OPTIMIZATION STEP:     11
 --------------------------

 CELL| Volume [angstrom^3]:                                           249.607173
 CELL| Vector a [angstrom]:       4.131     0.000     0.000   |a| =     4.130886
 CELL| Vector b [angstrom]:       0.000     8.885     0.000   |b| =     8.885159
 CELL| Vector c [angstrom]:      -1.383     0.000     6.801   |c| =     6.939918
 CELL| Angle (b,c), alpha [degree]:                                    90.000000
 CELL| Angle (a,c), beta  [degree]:                                   101.498941
 CELL| Angle (a,b), gamma [degree]:                                    90.000000
 CELL| Numerically orthorhombic:                                              NO
 CELL| Periodicity                                                           XYZ

 Extrapolation method: ASPC

 Number of electrons:                                                         72
 Number of occupied orbitals:                                                 36
 Number of molecular orbitals:                                                72

 Number of orbital functions:                                                 72
 Number of independent orbital functions:                                     72


 SCF WAVEFUNCTION OPTIMIZATION

  Step     Update method      Time    Convergence         Total energy    Change
  ------------------------------------------------------------------------------
     1 TBLite/Diag 0.40E+00    0.0     0.00843726       -46.6358612696 -4.66E+01
     2 TBLite/Diag 0.40E+00    0.0     0.00073887       -46.6358648014 -3.53E-06
     3 TBLite/Diag 0.40E+00    0.0     0.00018750       -46.6358650289 -2.27E-07
     4 TBLite/Diag 0.40E+00    0.0     0.00007174       -46.6358650623 -3.34E-08
     5 TBLite/Diag 0.40E+00    0.0     0.00000896       -46.6358650625 -2.14E-10
     6 TBLite/Diag 0.40E+00    0.0     0.00000499       -46.6358650626 -1.61E-10
     7 TBLite/Diag 0.40E+00    0.0     0.00000188       -46.6358650626 -6.40E-12
     8 TBLite/Diag 0.40E+00    0.0     0.00000006       -46.6358650626 -2.84E-14
     9 TBLite/Diag 0.40E+00    0.0     2.0074E-09       -46.6358650626 -4.97E-14
    10 TBLite/Diag 0.40E+00    0.0     2.6539E-11       -46.6358650626  1.28E-13

  *** SCF run converged in    10 steps ***


  Core Hamiltonian energy:                                    -47.32513767683815
  Repulsive potential energy:                                   0.45482307741101
  Electrostatic energy:                                         0.26742937301677
  Self-consistent dispersion energy:                            0.00000000000000
  Non-self consistent dispersion energy:                       -0.03297983623899
  Correction for halogen bonding:                               0.00000000000000
  Electronic entropic energy:                                  -0.00000000000000
  Fermi energy:                                                -0.28064963780811

  Total energy:                                               -46.63586506264936
  Total energy (extrapolated to T->0):                        -46.63586506264936

 ENERGY| Total FORCE_EVAL ( QS ) energy [hartree]            -46.635865062649358

 OPT| **************************************************************************
 OPT| Step number                                                             11
 OPT| Optimization method                                                   BFGS
 OPT| Total energy [hartree]                                      -46.6358650626
 OPT| Internal pressure [bar]                                   -6538.3347595547
 OPT| Effective energy change [hartree]                            -0.0009482286
 OPT| Predicted energy change [hartree]                            -0.0006612637
 OPT| Scaling factor                                                0.0000000000
 OPT| Step size                                                     0.1070882481
 OPT| Trust radius                                                  0.4724315332
 OPT| Decrease in energy                                                     YES
 OPT| Used time [s]                                                        0.249
 OPT|
 OPT| Maximum step size                                             0.1070882481
 OPT| Convergence limit for maximum step size                       0.0030000000
 OPT| Maximum step size is converged                                          NO
 OPT|
 OPT| RMS step size                                                 0.0196122331
 OPT| Convergence limit for RMS step size                           0.0015000000
 OPT| RMS step size is converged                                              NO
 OPT|
 OPT| Maximum gradient                                              0.0075618902
 OPT| Convergence limit for maximum gradient                        0.0004500000
 OPT| Maximum gradient is converged                                           NO
 OPT|
 OPT| RMS gradient                                                  0.0023081013
 OPT| Convergence limit for RMS gradient                            0.0003000000
 OPT| RMS gradient is converged                                               NO
 OPT|
 OPT| Pressure deviation [bar]                                  -6538.3347595547
 OPT| Pressure tolerance [bar]                                    100.0000000000
 OPT| Pressure is converged                                                   NO
 OPT| **************************************************************************
 OPT| Estimated peak process memory after this step [MiB]                    168

 --------------------------
 OPTIMIZATION STEP:     12
 --------------------------

 CELL| Volume [angstrom^3]:                                           251.657712
 CELL| Vector a [angstrom]:       4.235     0.000     0.000   |a| =     4.235485
 CELL| Vector b [angstrom]:      -0.000     8.824     0.000   |b| =     8.823878
 CELL| Vector c [angstrom]:      -1.404     0.000     6.734   |c| =     6.878482
 CELL| Angle (b,c), alpha [degree]:                                    90.000000
 CELL| Angle (a,c), beta  [degree]:                                   101.780296
 CELL| Angle (a,b), gamma [degree]:                                    90.000000
 CELL| Numerically orthorhombic:                                              NO
 CELL| Periodicity                                                           XYZ

 Extrapolation method: ASPC

 Number of electrons:                                                         72
 Number of occupied orbitals:                                                 36
 Number of molecular orbitals:                                                72

 Number of orbital functions:                                                 72
 Number of independent orbital functions:                                     72


 SCF WAVEFUNCTION OPTIMIZATION

  Step     Update method      Time    Convergence         Total energy    Change
  ------------------------------------------------------------------------------
     1 TBLite/Diag 0.40E+00    0.0     0.01452038       -46.6371537526 -4.66E+01
     2 TBLite/Diag 0.40E+00    0.0     0.00068349       -46.6371563128 -2.56E-06
     3 TBLite/Diag 0.40E+00    0.0     0.00013503       -46.6371564516 -1.39E-07
     4 TBLite/Diag 0.40E+00    0.0     0.00007288       -46.6371564807 -2.91E-08
     5 TBLite/Diag 0.40E+00    0.0     0.00001266       -46.6371564809 -2.83E-10
     6 TBLite/Diag 0.40E+00    0.0     0.00000937       -46.6371564812 -2.83E-10
     7 TBLite/Diag 0.40E+00    0.0     0.00000209       -46.6371564812 -7.31E-12
     8 TBLite/Diag 0.40E+00    0.0     0.00000007       -46.6371564812 -1.42E-14
     9 TBLite/Diag 0.40E+00    0.0     3.0340E-09       -46.6371564812 -7.11E-15
    10 TBLite/Diag 0.40E+00    0.0     5.0563E-11       -46.6371564812 -2.13E-14

  *** SCF run converged in    10 steps ***


  Core Hamiltonian energy:                                    -47.32217649801240
  Repulsive potential energy:                                   0.45110296630413
  Electrostatic energy:                                         0.26654027933176
  Self-consistent dispersion energy:                            0.00000000000000
  Non-self consistent dispersion energy:                       -0.03262322886154
  Correction for halogen bonding:                               0.00000000000000
  Electronic entropic energy:                                  -0.00000000000000
  Fermi energy:                                                -0.28180457267218

  Total energy:                                               -46.63715648123804
  Total energy (extrapolated to T->0):                        -46.63715648123804

 ENERGY| Total FORCE_EVAL ( QS ) energy [hartree]            -46.637156481238044

 OPT| **************************************************************************
 OPT| Step number                                                             12
 OPT| Optimization method                                                   BFGS
 OPT| Total energy [hartree]                                      -46.6371564812
 OPT| Internal pressure [bar]                                   -5594.9073656858
 OPT| Effective energy change [hartree]                            -0.0012914186
 OPT| Predicted energy change [hartree]                            -0.0007378865
 OPT| Scaling factor                                                0.0000000000
 OPT| Step size                                                     0.1976634535
 OPT| Trust radius                                                  0.4724315332
[...]
 CELL| Numerically orthorhombic:                                              NO
 CELL| Periodicity                                                           XYZ

 Extrapolation method: ASPC

 Number of electrons:                                                         72
 Number of occupied orbitals:                                                 36
 Number of molecular orbitals:                                                72

 Number of orbital functions:                                                 72
 Number of independent orbital functions:                                     72


 SCF WAVEFUNCTION OPTIMIZATION

  Step     Update method      Time    Convergence         Total energy    Change
  ------------------------------------------------------------------------------
     1 TBLite/Diag 0.40E+00    0.0     0.00094728       -46.6510149057 -4.67E+01
     2 TBLite/Diag 0.40E+00    0.0     0.00003965       -46.6510149177 -1.20E-08
     3 TBLite/Diag 0.40E+00    0.0     0.00000399       -46.6510149179 -1.80E-10
     4 TBLite/Diag 0.40E+00    0.0     0.00000364       -46.6510149179 -2.46E-11
     5 TBLite/Diag 0.40E+00    0.0     0.00000077       -46.6510149179 -1.70E-12
     6 TBLite/Diag 0.40E+00    0.0     0.00000017       -46.6510149179 -4.12E-13
     7 TBLite/Diag 0.40E+00    0.0     0.00000004       -46.6510149179 -7.11E-15
     8 TBLite/Diag 0.40E+00    0.0     1.5039E-09       -46.6510149179  7.11E-14
     9 TBLite/Diag 0.40E+00    0.0     7.1109E-12       -46.6510149179  2.84E-14

  *** SCF run converged in     9 steps ***


  Core Hamiltonian energy:                                    -47.32755678916342
  Repulsive potential energy:                                   0.44648680036798
  Electrostatic energy:                                         0.26438464987812
  Self-consistent dispersion energy:                            0.00000000000000
  Non-self consistent dispersion energy:                       -0.03432957903080
  Correction for halogen bonding:                               0.00000000000000
  Electronic entropic energy:                                  -0.00000000000000
  Fermi energy:                                                -0.28396805338224

  Total energy:                                               -46.65101491794811
  Total energy (extrapolated to T->0):                        -46.65101491794811

 ENERGY| Total FORCE_EVAL ( QS ) energy [hartree]            -46.651014917948110

 OPT| **************************************************************************
 OPT| Step number                                                             70
 OPT| Optimization method                                                   BFGS
 OPT| Total energy [hartree]                                      -46.6510149179
 OPT| Internal pressure [bar]                                     -59.0925869084
 OPT| Effective energy change [hartree]                            -0.0000008377
 OPT| Predicted energy change [hartree]                            -0.0000010904
 OPT| Scaling factor                                                0.1548702641
 OPT| Step size                                                     0.0024140641
 OPT| Trust radius                                                  0.4724315332
 OPT| Decrease in energy                                                     YES
 OPT| Used time [s]                                                        0.283
 OPT|
 OPT| Maximum step size                                             0.0024140641
 OPT| Convergence limit for maximum step size                       0.0030000000
 OPT| Maximum step size is converged                                         YES
 OPT|
 OPT| RMS step size                                                 0.0009743975
 OPT| Convergence limit for RMS step size                           0.0015000000
 OPT| RMS step size is converged                                             YES
 OPT|
 OPT| Maximum gradient                                              0.0002137311
 OPT| Convergence limit for maximum gradient                        0.0004500000
 OPT| Maximum gradient is converged                                          YES
 OPT|
 OPT| RMS gradient                                                  0.0000921123
 OPT| Convergence limit for RMS gradient                            0.0003000000
 OPT| RMS gradient is converged                                              YES
 OPT|
 OPT| Pressure deviation [bar]                                    -59.0925869084
 OPT| Pressure tolerance [bar]                                    100.0000000000
 OPT| Pressure is converged                                                  YES
 OPT| **************************************************************************
 OPT| Estimated peak process memory after this step [MiB]                    168

 *******************************************************************************
 ***                    GEOMETRY OPTIMIZATION COMPLETED                      ***
 *******************************************************************************

 write_final_structure: Optimization converged, writing XYZ file gladly:
  formamide_GFN1_gamma_cell_opt-FINAL-1_70.xyz

 write_final_structure: Optimization converged, writing CIF file gladly:
  formamide_GFN1_gamma_cell_opt-FINAL-1_70.cif

 write_final_structure: Done!

                    Reevaluating energy at the minimum

 CELL| Volume [angstrom^3]:                                           239.376853
 CELL| Vector a [angstrom]:       4.528     0.000     0.000   |a| =     4.527990
 CELL| Vector b [angstrom]:       0.000     8.383     0.000   |b| =     8.382799
 CELL| Vector c [angstrom]:      -2.232    -0.000     6.306   |c| =     6.689902
 CELL| Angle (b,c), alpha [degree]:                                    90.000000
 CELL| Angle (a,c), beta  [degree]:                                   109.492028
 CELL| Angle (a,b), gamma [degree]:                                    90.000000
 CELL| Numerically orthorhombic:                                              NO
 CELL| Periodicity                                                           XYZ

 Extrapolation method: ASPC

 Number of electrons:                                                         72
 Number of occupied orbitals:                                                 36
 Number of molecular orbitals:                                                72

 Number of orbital functions:                                                 72
 Number of independent orbital functions:                                     72


 SCF WAVEFUNCTION OPTIMIZATION

  Step     Update method      Time    Convergence         Total energy    Change
  ------------------------------------------------------------------------------
     1 TBLite/Diag 0.40E+00    0.0     1.9124E-12       -46.6510149179 -4.67E+01

  *** SCF run converged in     1 steps ***


  Core Hamiltonian energy:                                    -47.32755678916136
  Repulsive potential energy:                                   0.44648680036798
  Electrostatic energy:                                         0.26438464987602
  Self-consistent dispersion energy:                            0.00000000000000
  Non-self consistent dispersion energy:                       -0.03432957903080
  Correction for halogen bonding:                               0.00000000000000
  Electronic entropic energy:                                  -0.00000000000000
  Fermi energy:                                                -0.28396805338231

  Total energy:                                               -46.65101491794817
  Total energy (extrapolated to T->0):                        -46.65101491794817

 ENERGY| Total FORCE_EVAL ( QS ) energy [hartree]            -46.651014917948167

 -------------------------------------------------------------------------------
 -                                                                             -
 -                                DBCSR STATISTICS                             -
 -                                                                             -
 -------------------------------------------------------------------------------
 COUNTER                                    TOTAL       BLAS       SMM       ACC
 flops     2 x     8 x     2              3179520       0.0%    100.0%      0.0%     
 flops     4 x     8 x     2              6359040       0.0%    100.0%      0.0%     
 flops     2 x     8 x     4              6359040       0.0%    100.0%      0.0%     
 flops     4 x     8 x     4             12718080       0.0%    100.0%      0.0%     
 flops     2 x    32 x     2             25436160       0.0%    100.0%      0.0%     
 flops     2 x     2 x    72             36211968       0.0%    100.0%      0.0%     
 flops     4 x    32 x     2             50872320       0.0%    100.0%      0.0%     
 flops     2 x    32 x     4             50872320       0.0%    100.0%      0.0%     
 flops     4 x     2 x    72             66852864       0.0%    100.0%      0.0%     
 flops     2 x     4 x    72             66852864       0.0%    100.0%      0.0%     
 flops     4 x    32 x     4            101744640       0.0%    100.0%      0.0%     
 flops     4 x     4 x    72            144847872       0.0%    100.0%      0.0%     
 flops inhomo. stacks                           0       0.0%      0.0%      0.0%
 flops total                       572.306688E+06       0.0%    100.0%      0.0%
 flops max/rank                    572.306688E+06       0.0%    100.0%      0.0%
 matmuls inhomo. stacks                         0       0.0%      0.0%      0.0%
 matmuls total                             837960       0.0%    100.0%      0.0%
 number of processed stacks                  5984       0.0%    100.0%      0.0%
 average stack size                                     0.0     140.0       0.0
 marketing flops                   558.379008E+06
 -------------------------------------------------------------------------------
 # multiplications                           1151
 max memory usage/rank              13.671916E+09
 # max total images/rank                        1
 # max 3D layers                                1
 # MPI messages exchanged                       0
 -------------------------------------------------------------------------------
 -                                                                             -
 -                      DBCSR MESSAGE PASSING PERFORMANCE                      -
 -                                                                             -
 -------------------------------------------------------------------------------
 ROUTINE             CALLS      AVE VOLUME [Bytes]
 MP_Bcast               13                     12.
 MP_Allreduce         5108                      8.
 MP_Alltoall         36077                  27802.
 MP_ISend             4604                   2951.
 MP_IRecv             4604                   2951.
 -------------------------------------------------------------------------------

 -------------------------------------------------------------------------------
 -                                                                             -
 -                          OFFLOAD MEMPOOL STATISTICS                         -
 -                                                                             -
 -------------------------------------------------------------------------------
 Memory consumption                Number of allocations  Used [MiB]  Size [MiB]
 Device                                                2           0           0
 Host                                                  2           0           0
 -------------------------------------------------------------------------------

 MEMORY| Estimated peak process memory [MiB]                                 168

 -------------------------------------------------------------------------------
 -                                                                             -
 -                         MESSAGE PASSING PERFORMANCE                         -
 -                                                                             -
 -------------------------------------------------------------------------------

 ROUTINE             CALLS      AVE VOLUME [Bytes]
 MP_Group               71
 MP_Bcast             1610                    292.
 MP_Allreduce        15024                    151.
 MP_Sync               876
 MP_comm_split         805
 -------------------------------------------------------------------------------


 -------------------------------------------------------------------------------
 -                                                                             -
 -                           R E F E R E N C E S                               -
 -                                                                             -
 -------------------------------------------------------------------------------
 
 CP2K version 2026.1 (Development Version), the CP2K developers group (2026).
 CP2K is freely available from https://www.cp2k.org/ .
 
 M. Iannuzzi, J. Wilhelm, F. Stein, A. Bussy, H. Elgabarty, D. Golze, A. Hehn, 
 M. Graml, S. Marek, B. Sertcan Gökmen, C. Schran, H. Forbert, R. Z. 
 Khaliullin, A. Kozhevnikov, M. Taillefumier, R. Meli, V. V. Rybkin, M. Brehm, 
 R. Schade, O. Schütt, J. V. Pototschnig, H. Mirhosseini, A. Knüpfer, D. Marx, 
 M. Krack, J. Hutter, T. D. Kühne.
 J. Phys. Chem. B 130, 1237-1310 (2026).
 The CP2K Program Package Made Simple.
 https://doi.org/10.1021/acs.jpcb.5c05851

 A. Katbashev, M. Stahn, T. Rose, V. Alizadeh, M. Friede, C. Plett, P. 
 Steinbach, S. Ehlert.
 J. Phys. Chem. A 129, 2667-2682 (2025).
 Overview on Building Blocks and Applications of Efficient and Robust Extended 
 Tight Binding.
 https://doi.org/10.1021/acs.jpca.4c08263

 T. D. Kühne, M. Iannuzzi, M. Del Ben, V. V. Rybkin, P. Seewald, F. Stein, T. 
 Laino, R. Z. Khaliullin, O. Schütt, F. Schiffmann, D. Golze, J. Wilhelm, S. 
 Chulkov, M. H. Bani-Hashemian, V. Weber, U. Borstnik, M. Taillefumier, A. S. 
 Jakobovits, A. Lazzaro, H. Pabst, T. Müller, R. Schade, M. Guidon, S. 
 Andermatt, N. Holmberg, G. K. Schenter, A. Hehn, A. Bussy, F. Belleflamme, G. 
 Tabacchi, A. Glöß, M. Lass, I. Bethune, C. J. Mundy, C. Plessl, M. Watkins, 
 J. VandeVondele, M. Krack, J. Hutter.
 J. Chem. Phys. 152, 194103 (2020).
 CP2K: An electronic structure and molecular dynamics software package - 
 Quickstep: Efficient and accurate electronic structure calculations.
 https://doi.org/10.1063/5.0007045

 P. Pracht, E. Caldeweyher, S. Ehlert, S. Grimme.
 ChemRxiv, (2019).
 A Robust Non-Self-Consistent Tight-Binding Quantum Chemistry Method for large 
 Molecules.
 https://doi.org/10.26434/chemrxiv.8326202.v1

 S. Grimme, C. Bannwarth, P. Shushkov.
 J. Chem. Theory Comput. 13, 1989 (2017).
 A Robust and Accurate Tight-Binding Quantum Chemical Method for Structures, 
 Vibrational Frequencies, and Noncovalent Interactions of Large Molecular 
 Systems Parametrized for All spd-Block Elements (Z = 1-86).
 https://doi.org/10.1021/acs.jctc.7b00118

 O. Schuett, P. Messmer, J. Hutter, J. VandeVondele.
 Electronic Structure Calculations on Graphics Processing Units, 173-190 (2016).
 GPU-Accelerated Sparse Matrix-Matrix Multiplication for Linear Scaling Density 
 Functional Theory.
 https://doi.org/10.1002/9781118670712.ch8

 A. Heinecke, G. Henry, M. Hutchinson, H. Pabst.
 Proceedings of Intl. Supercomputing Conference, 981-991 (2016).
 LIBXSMM: Accelerating Small Matrix Multiplications by Runtime Code Generation.
 https://doi.org/10.1109/SC.2016.83

 U. Borstnik, J. VandeVondele, V. Weber, J. Hutter.
 Parallel Comput. 40, 47-58 (2014).
 Sparse matrix multiplication: The distributed block-compressed sparse row 
 library.
 https://doi.org/10.1016/j.parco.2014.03.012

 T. D. Kühne, M. Krack, F. R. Mohamed, M. Parrinello.
 Phys. Rev. Lett. 98, 066401 (2007).
 Efficient and accurate Car-Parrinello-like approach to Born-Oppenheimer 
 molecular dynamics.
 https://doi.org/10.1103/PhysRevLett.98.066401

 M. Frigo, S. G. Johnson.
 Proc. IEEE 93, 216-231 (2005).
 The design and implementation of FFTW3.
 https://doi.org/10.1109/JPROC.2004.840301

 J. Kolafa.
 J. Comput. Chem. 25, 335-342 (2004).
 Time-reversible always stable predictor-corrector method for molecular dynamics 
 of polarizable molecules.
 https://doi.org/10.1002/jcc.10385

 N. D. Mermin.
 Phys. Rev. 137, A1441-A1443 (1965).
 Thermal Properties of the Inhomogeneous Electron Gas.
 https://doi.org/10.1103/PhysRev.137.A1441


 -------------------------------------------------------------------------------
 -                                                                             -
 -                                T I M I N G                                  -
 -                                                                             -
 -------------------------------------------------------------------------------
 SUBROUTINE                       CALLS  ASD         SELF TIME        TOTAL TIME
                                MAXIMUM       AVERAGE  MAXIMUM  AVERAGE  MAXIMUM
 CP2K                                 1  1.0    0.003    0.003   19.080   19.080
 cp_cell_opt                          1  2.0    0.000    0.000   19.072   19.072
 geoopt_bfgs                          1  3.0    0.010    0.010   19.072   19.072
 cp_eval_at                          72  4.0    0.010    0.010   18.934   18.934
 qs_forces                           71  5.0    0.006    0.006   18.853   18.853
 build_tblite_matrices              143  7.0    8.925    8.925    9.000    9.000
 rebuild_ks_matrix                  735  9.7    0.001    0.001    7.165    7.165
 build_tblite_ks_matrix             735 10.7    7.155    7.155    7.164    7.164
 qs_ks_update_qs_env_forces          71  6.0    0.000    0.000    7.030    7.030
 qs_energies                         72  6.0    0.003    0.003    6.602    6.602
 qs_energies_init_hamiltonians       72  7.0    0.000    0.000    3.897    3.897
 scf_env_do_scf                      72  7.0    0.001    0.001    2.108    2.108
 scf_env_do_scf_inner_loop          664  8.0    0.057    0.057    2.101    2.101
 qs_scf_new_mos                     664  9.0    0.004    0.004    1.779    1.779
 cp_dbcsr_plus_fm_fm_t              806 10.8    0.006    0.006    0.722    0.722
 calculate_dm_sparse                735 10.0    0.004    0.004    0.667    0.667
 dbcsr_multiply_generic            1151 12.0    0.028    0.028    0.641    0.641
 eigensolver                        664 10.0    0.016    0.016    0.574    0.574
 cp_fm_syevd                        805 10.6    0.003    0.003    0.544    0.544
 dbcsr_complete_redistribute       3630 12.2    0.367    0.367    0.530    0.530
 copy_dbcsr_to_fm                  1673 10.6    0.013    0.013    0.514    0.514
 init_scf_run                        72  7.0    0.001    0.001    0.502    0.502
 cp_fm_syevd_base                   805 11.6    0.476    0.476    0.476    0.476
 scf_env_initial_rho_setup           72  8.0    0.001    0.001    0.468    0.468
 wfi_extrapolate                     72  9.0    0.003    0.003    0.467    0.467
 -------------------------------------------------------------------------------

 The number of warnings for this run is : 0
 
 -------------------------------------------------------------------------------
  **** **** ******  **  PROGRAM ENDED AT                 2026-05-23 22:47:11.130
 ***** ** ***  *** **   PROGRAM RAN ON                                spark-c86c
 **    ****   ******    PROGRAM RAN BY                                  kuehne88
 ***** **    ** ** **   PROGRAM PROCESS ID                               2265232
  **** **  *******  **  PROGRAM STOPPED IN /home/kuehne88/periodic-gfn2-benchmar
                                           ks/X23b/runs/cellopt_gamma/GFN1/forma
                                           mide_GFN1_gamma_cellopt
