 DBCSR| CPU Multiplication driver                                           XSMM (U)
 DBCSR| Multrec recursion limit                                              512 (U)
 DBCSR| Multiplication stack size                                           1000 (D)
 DBCSR| Maximum elements for images                                    UNLIMITED (U)
 DBCSR| Multiplicative factor virtual images                                   1 (U)
 DBCSR| Use multiplication densification                                       T (D)
 DBCSR| Multiplication size stacks                                             3 (U)
 DBCSR| Use memory pool for CPU allocation                                     F (U)
 DBCSR| Number of 3D layers                                               SINGLE (U)
 DBCSR| Use MPI memory allocation                                              F (U)
 DBCSR| Use RMA algorithm                                                      F (U)
 DBCSR| Use Communication thread                                               T (U)
 DBCSR| Communication thread load                                             87 (D)
 DBCSR| MPI: My process id                                                     0
 DBCSR| MPI: Number of processes                                               1
 DBCSR| OMP: Current number of threads                                         1
 DBCSR| OMP: Max number of threads                                             1
 DBCSR| Split modifier for TAS multiplication algorithm                  1.0E+00 (U)


  **** **** ******  **  PROGRAM STARTED AT               2026-05-23 22:46:48.548
 ***** ** ***  *** **   PROGRAM STARTED ON                            spark-c86c
 **    ****   ******    PROGRAM STARTED BY                              kuehne88
 ***** **    ** ** **   PROGRAM PROCESS ID                               2263330
  **** **  *******  **  PROGRAM STARTED IN /home/kuehne88/periodic-gfn2-benchmar
                                           ks/X23b/runs/cellopt_gamma/GFN1/14-cy
                                           clohexanedione_GFN1_gamma_cellopt

 CP2K| version string:                 CP2K version 2026.1 (Development Version)
 CP2K| source code revision number:                                   0622d442e4
 CP2K| cp2kflags: omp fftw3 libxc parallel scalapack mpi_f08 xsmm spglib libdftd
 CP2K|            4 dftd4_v3 mctc-lib tblite
 CP2K| is freely available from                            https://www.cp2k.org/
 CP2K| Program compiled at                                   2026-05-23 22:05:08
 CP2K| Program compiled on                                            spark-c86c
 CP2K| Program compiled for                                              aarch64
 CP2K| Data directory path    /home/kuehne88/cp2k-master-tblite-20260523/install
 CP2K| Input file name                14-cyclohexanedione_GFN1_gamma_cellopt.inp

 GLOBAL| Force Environment number                                              1
 GLOBAL| Basis set file name                                           BASIS_SET
 GLOBAL| Potential file name                                           POTENTIAL
 GLOBAL| MM Potential file name                                     MM_POTENTIAL
 GLOBAL| Coordinate file name                                      __STD_INPUT__
 GLOBAL| Method name                                                        CP2K
 GLOBAL| Project name                    14_cyclohexanedione_GFN1_gamma_cell_opt
 GLOBAL| Run type                                                       CELL_OPT
 GLOBAL| FFT library                                                       FFTW3
 GLOBAL| Diagonalization library                                       ScaLAPACK
 GLOBAL| Cholesky decomposition library                                ScaLAPACK
 GLOBAL| DGEMM library                                                      BLAS
 GLOBAL| Direct generalized diagonalization requested                          F
 GLOBAL| Orthonormality check for eigenvectors                          DISABLED
 GLOBAL| Matrix multiplication library                                 ScaLAPACK
 GLOBAL| All-to-all communication in single precision                          F
 GLOBAL| FFTs using library dependent lengths                                  F
 GLOBAL| Grid backend                                                       AUTO
 GLOBAL| Global print level                                                  LOW
 GLOBAL| MPI I/O enabled                                                       T
 GLOBAL| Total number of message passing processes                             1
 GLOBAL| Number of distributed systems (nodes)                                 1
 GLOBAL| Number of threads for this process                                    1
 GLOBAL| This output is from process                                           0
 GLOBAL| OpenMP stack size per thread (OMP_STACKSIZE)                    default
 GLOBAL| CPU model name                                                  UNKNOWN
 GLOBAL| CPUID                                                              2200
 GLOBAL| Compiled for CPUID                                                 2000

 *** HINT in environment.F:970 :: The compiler target flags (arm_arch64)   ***
 *** used to build this binary cannot exploit all extensions of this CPU   ***
 *** model (arm_sve256). Consider compiler target flags as part of FCFLAGS ***
 *** and CFLAGS (ARCH file).                                               ***


 MEMORY| system memory details [Kb]
 MEMORY|                        rank 0           min           max       average
 MEMORY| MemTotal            125508532     125508532     125508532     125508532
 MEMORY| MemFree             101608132     101608132     101608132     101608132
 MEMORY| Buffers                867384        867384        867384        867384
 MEMORY| Cached               13901332      13901332      13901332      13901332
 MEMORY| Slab                  1587896       1587896       1587896       1587896
 MEMORY| SReclaimable           909656        909656        909656        909656
 MEMORY| MemLikelyFree       117286504     117286504     117286504     117286504


 GENERATE|  Preliminary Number of Bonds generated:                             0
 GENERATE|  Achieved consistency in connectivity generation.


                  #####   #####        #     #   #     #       #          
                 #     # #     #      #    ##### #     #   # #####  ####  
                 #     # #           #       #   ###   #       #   #    # 
                 #     #  #####     #        #   #  #  #   #   #   ###### 
                 #   # #       #   #         #   #   # #   #   #   #      
                 #    #  #     #  #          #   #  #  # # #   #    #   # 
                  #### #  #####  #           #   ###   ##  #   #     ###  

                                   GFN1-xTB  
                                 Version 0.0                       
                            Johann V. Pototschnig                  



 TOTAL NUMBERS AND MAXIMUM NUMBERS

  Total number of            - Atomic kinds:                                   3
                             - Atoms:                                         32
                             - Shell sets:                                    64
                             - Shells:                                        64
                             - Primitive Cartesian functions:                368
                             - Cartesian basis functions:                     96
                             - Spherical basis functions:                     96

  Maximum angular momentum of the orbital basis functions:                     1


 SCF PARAMETERS         Density guess:                                     MOPAC
                        --------------------------------------------------------
                        max_scf:                                             300
                        max_scf_history:                                       0
                        max_diis:                                              4
                        --------------------------------------------------------
                        eps_scf:                                        1.00E-09
                        eps_scf_history:                                0.00E+00
                        eps_diis:                                       1.00E-01
                        eps_eigval:                                     1.00E-05
                        --------------------------------------------------------
                        level_shift [a.u.]:                             0.000000
                        added MOs                                        52    0
                        --------------------------------------------------------
                        Mixing method:                           DIRECT_P_MIXING
                        --------------------------------------------------------
                        Smear method:                                FERMI_DIRAC
                        Electronic temperature [K]:                        300.0
                        Electronic temperature [a.u.]:                  9.50E-04
                        Accuracy threshold:                             1.00E-06
                        --------------------------------------------------------
                        No outer SCF

 CELL_OPT| Pressure tolerance [bar]:                                       100.0
 CELL_OPT| Keep volume of cell:                                               NO
 CELL_OPT| Keep angles between the cell vectors:                              NO
 CELL_OPT| Keep cell symmetry:                                                NO
 CELL_OPT| Constraint:                                                      NONE

 BFGS| Use rational function optimization for step estimation:                NO
 BFGS| Use model Hessian for initial guess:                                   NO
 BFGS| Restart Hessian:                                                       NO
 BFGS| Trust radius:                                                       0.472

 *******************************************************************************
 ***                     STARTING   CELL   OPTIMIZATION                      ***
 ***                                   BFGS                                  ***
 *******************************************************************************

 CELL| Volume [angstrom^3]:                                           279.550201
 CELL| Vector a [angstrom]:       6.650     0.000     0.000   |a| =     6.650000
 CELL| Vector b [angstrom]:       0.000     6.210     0.000   |b| =     6.210000
 CELL| Vector c [angstrom]:      -1.172     0.000     6.769   |c| =     6.870000
 CELL| Angle (b,c), alpha [degree]:                                    90.000000
 CELL| Angle (a,c), beta  [degree]:                                    99.820000
 CELL| Angle (a,b), gamma [degree]:                                    90.000000
 CELL| Numerically orthorhombic:                                              NO
 CELL| Periodicity                                                           XYZ

 Extrapolation method: initial_guess

 Number of electrons:                                                         88
 Number of occupied orbitals:                                                 44
 Number of molecular orbitals:                                                96

 Number of orbital functions:                                                 96
 Number of independent orbital functions:                                     96


 SCF WAVEFUNCTION OPTIMIZATION

  Step     Update method      Time    Convergence         Total energy    Change
  ------------------------------------------------------------------------------
     1 TBLite/Diag 0.40E+00    0.0     1.41162056       -52.1011923663 -5.21E+01
     2 TBLite/Diag 0.40E+00    0.0     0.38809095       -52.8525173569 -7.51E-01
     3 TBLite/Diag 0.40E+00    0.0     0.05841282       -52.8620709634 -9.55E-03
     4 TBLite/Diag 0.40E+00    0.0     0.04442019       -52.8645162656 -2.45E-03
     5 TBLite/Diag 0.40E+00    0.0     0.03371287       -52.8661791925 -1.66E-03
     6 TBLite/Diag 0.40E+00    0.0     0.01259410       -52.8662875404 -1.08E-04
     7 TBLite/Diag 0.40E+00    0.0     0.00564390       -52.8663800518 -9.25E-05
     8 TBLite/Diag 0.40E+00    0.0     0.00013961       -52.8663799694  8.24E-08
     9 TBLite/Diag 0.40E+00    0.0     0.00016142       -52.8663800609 -9.15E-08
    10 TBLite/Diag 0.40E+00    0.0     0.00002213       -52.8663800588  2.14E-09
    11 TBLite/Diag 0.40E+00    0.0     0.00002265       -52.8663800610 -2.14E-09
    12 TBLite/Diag 0.40E+00    0.0     0.00000243       -52.8663800610 -2.90E-11
    13 TBLite/Diag 0.40E+00    0.0     0.00000058       -52.8663800610 -1.25E-12
    14 TBLite/Diag 0.40E+00    0.0     0.00000004       -52.8663800610 -7.11E-15
    15 TBLite/Diag 0.40E+00    0.0     1.6304E-09       -52.8663800610  7.11E-15
    16 TBLite/Diag 0.40E+00    0.0     3.8845E-10       -52.8663800610 -4.26E-14

  *** SCF run converged in    16 steps ***


  Core Hamiltonian energy:                                    -53.59983094879556
  Repulsive potential energy:                                   0.59338916791103
  Electrostatic energy:                                         0.19272363731700
  Self-consistent dispersion energy:                            0.00000000000000
  Non-self consistent dispersion energy:                       -0.05266191741808
  Correction for halogen bonding:                               0.00000000000000
  Electronic entropic energy:                                  -0.00000000000000
  Fermi energy:                                                -0.32890603883281

  Total energy:                                               -52.86638006098560
  Total energy (extrapolated to T->0):                        -52.86638006098560

 ENERGY| Total FORCE_EVAL ( QS ) energy [hartree]            -52.866380060985598

 OPT| **************************************************************************
 OPT| Step number                                                              0
 OPT| Optimization method                                                   BFGS
 OPT| Total energy [hartree]                                      -52.8663800610
 OPT| Internal pressure [bar]                                  -11329.5378145024
 OPT| Used time [s]                                                        0.404
 OPT| **************************************************************************
 OPT| Estimated peak process memory [MiB]                                    168

 --------------------------
 OPTIMIZATION STEP:      1
 --------------------------

 CELL| Volume [angstrom^3]:                                           279.185235
 CELL| Vector a [angstrom]:       6.648     0.000     0.000   |a| =     6.648049
 CELL| Vector b [angstrom]:       0.000     6.209     0.000   |b| =     6.209396
 CELL| Vector c [angstrom]:      -1.170     0.000     6.763   |c| =     6.863551
 CELL| Angle (b,c), alpha [degree]:                                    90.000000
 CELL| Angle (a,c), beta  [degree]:                                    99.812240
 CELL| Angle (a,b), gamma [degree]:                                    90.000000
 CELL| Numerically orthorhombic:                                              NO
 CELL| Periodicity                                                           XYZ

 Extrapolation method: ASPC

 Number of electrons:                                                         88
 Number of occupied orbitals:                                                 44
 Number of molecular orbitals:                                                96

 Number of orbital functions:                                                 96
 Number of independent orbital functions:                                     96


 SCF WAVEFUNCTION OPTIMIZATION

  Step     Update method      Time    Convergence         Total energy    Change
  ------------------------------------------------------------------------------
     1 TBLite/Diag 0.40E+00    0.0     0.02323143       -52.8709830993 -5.29E+01
     2 TBLite/Diag 0.40E+00    0.0     0.00089209       -52.8709933014 -1.02E-05
     3 TBLite/Diag 0.40E+00    0.0     0.00042363       -52.8709937015 -4.00E-07
     4 TBLite/Diag 0.40E+00    0.0     0.00018952       -52.8709937579 -5.63E-08
     5 TBLite/Diag 0.40E+00    0.0     0.00006925       -52.8709937851 -2.72E-08
     6 TBLite/Diag 0.40E+00    0.0     0.00001634       -52.8709937861 -1.02E-09
     7 TBLite/Diag 0.40E+00    0.0     0.00000260       -52.8709937861 -2.05E-11
     8 TBLite/Diag 0.40E+00    0.0     0.00000061       -52.8709937861 -1.90E-12
     9 TBLite/Diag 0.40E+00    0.0     0.00000016       -52.8709937861 -7.11E-14
    10 TBLite/Diag 0.40E+00    0.0     0.00000004       -52.8709937861 -7.11E-14
    11 TBLite/Diag 0.40E+00    0.0     2.0676E-09       -52.8709937861  4.26E-14
    12 TBLite/Diag 0.40E+00    0.0     4.3279E-10       -52.8709937861  7.11E-15

  *** SCF run converged in    12 steps ***


  Core Hamiltonian energy:                                    -53.59437238787115
  Repulsive potential energy:                                   0.58396872955209
  Electrostatic energy:                                         0.19213380098599
  Self-consistent dispersion energy:                            0.00000000000000
  Non-self consistent dispersion energy:                       -0.05272392875631
  Correction for halogen bonding:                               0.00000000000000
  Electronic entropic energy:                                  -0.00000000000000
  Fermi energy:                                                -0.32737916036432

  Total energy:                                               -52.87099378608938
  Total energy (extrapolated to T->0):                        -52.87099378608938

 ENERGY| Total FORCE_EVAL ( QS ) energy [hartree]            -52.870993786089379

 OPT| **************************************************************************
 OPT| Step number                                                              1
 OPT| Optimization method                                                   BFGS
 OPT| Total energy [hartree]                                      -52.8709937861
 OPT| Internal pressure [bar]                                  -12869.9257478875
 OPT| Effective energy change [hartree]                            -0.0046137251
 OPT| Predicted energy change [hartree]                            -0.0035377076
 OPT| Scaling factor                                                0.0000000000
 OPT| Step size                                                     0.0229457670
 OPT| Trust radius                                                  0.4724315332
 OPT| Decrease in energy                                                     YES
 OPT| Used time [s]                                                        0.214
 OPT|
 OPT| Maximum step size                                             0.0229457670
 OPT| Convergence limit for maximum step size                       0.0030000000
 OPT| Maximum step size is converged                                          NO
 OPT|
 OPT| RMS step size                                                 0.0083286743
 OPT| Convergence limit for RMS step size                           0.0015000000
 OPT| RMS step size is converged                                              NO
 OPT|
 OPT| Maximum gradient                                              0.0078143075
 OPT| Convergence limit for maximum gradient                        0.0004500000
 OPT| Maximum gradient is converged                                           NO
 OPT|
 OPT| RMS gradient                                                  0.0033746309
 OPT| Convergence limit for RMS gradient                            0.0003000000
 OPT| RMS gradient is converged                                               NO
 OPT|
 OPT| Pressure deviation [bar]                                 -12869.9257478875
 OPT| Pressure tolerance [bar]                                    100.0000000000
 OPT| Pressure is converged                                                   NO
 OPT| **************************************************************************
 OPT| Estimated peak process memory after this step [MiB]                    168

 --------------------------
 OPTIMIZATION STEP:      2
 --------------------------

 CELL| Volume [angstrom^3]:                                           278.520618
 CELL| Vector a [angstrom]:       6.643     0.000     0.000   |a| =     6.642657
 CELL| Vector b [angstrom]:       0.000     6.206     0.000   |b| =     6.205955
 CELL| Vector c [angstrom]:      -1.165    -0.000     6.756   |c| =     6.855991
 CELL| Angle (b,c), alpha [degree]:                                    90.000000
 CELL| Angle (a,c), beta  [degree]:                                    99.784273
 CELL| Angle (a,b), gamma [degree]:                                    90.000000
 CELL| Numerically orthorhombic:                                              NO
 CELL| Periodicity                                                           XYZ

 Extrapolation method: ASPC

 Number of electrons:                                                         88
 Number of occupied orbitals:                                                 44
 Number of molecular orbitals:                                                96

 Number of orbital functions:                                                 96
 Number of independent orbital functions:                                     96


 SCF WAVEFUNCTION OPTIMIZATION

  Step     Update method      Time    Convergence         Total energy    Change
  ------------------------------------------------------------------------------
     1 TBLite/Diag 0.40E+00    0.0     0.01120995       -52.8723071994 -5.29E+01
     2 TBLite/Diag 0.40E+00    0.0     0.00189149       -52.8723163389 -9.14E-06
     3 TBLite/Diag 0.40E+00    0.0     0.00014606       -52.8723164894 -1.51E-07
     4 TBLite/Diag 0.40E+00    0.0     0.00012942       -52.8723164942 -4.82E-09
     5 TBLite/Diag 0.40E+00    0.0     0.00007529       -52.8723165126 -1.83E-08
     6 TBLite/Diag 0.40E+00    0.0     0.00001460       -52.8723165132 -6.02E-10
     7 TBLite/Diag 0.40E+00    0.0     0.00000120       -52.8723165132 -1.11E-11
     8 TBLite/Diag 0.40E+00    0.0     0.00000032       -52.8723165132 -4.69E-13
     9 TBLite/Diag 0.40E+00    0.0     0.00000010       -52.8723165132 -2.84E-14
    10 TBLite/Diag 0.40E+00    0.0     0.00000002       -52.8723165132 -2.13E-14
    11 TBLite/Diag 0.40E+00    0.0     2.7593E-09       -52.8723165132  4.26E-14
    12 TBLite/Diag 0.40E+00    0.0     3.2929E-10       -52.8723165132 -3.55E-14

  *** SCF run converged in    12 steps ***


  Core Hamiltonian energy:                                    -53.59189896020869
  Repulsive potential energy:                                   0.57958508180881
  Electrostatic energy:                                         0.19284592097368
  Self-consistent dispersion energy:                            0.00000000000000
  Non-self consistent dispersion energy:                       -0.05284855574381
  Correction for halogen bonding:                               0.00000000000000
  Electronic entropic energy:                                  -0.00000000000000
  Fermi energy:                                                -0.32785685924677

  Total energy:                                               -52.87231651317001
  Total energy (extrapolated to T->0):                        -52.87231651317001

 ENERGY| Total FORCE_EVAL ( QS ) energy [hartree]            -52.872316513170006

 OPT| **************************************************************************
 OPT| Step number                                                              2
 OPT| Optimization method                                                   BFGS
 OPT| Total energy [hartree]                                      -52.8723165132
 OPT| Internal pressure [bar]                                  -13765.4930237572
 OPT| Effective energy change [hartree]                            -0.0013227271
 OPT| Predicted energy change [hartree]                            -0.0009988858
 OPT| Scaling factor                                                0.0000000000
 OPT| Step size                                                     0.0140207923
 OPT| Trust radius                                                  0.4724315332
 OPT| Decrease in energy                                                     YES
 OPT| Used time [s]                                                        0.213
 OPT|
 OPT| Maximum step size                                             0.0140207923
 OPT| Convergence limit for maximum step size                       0.0030000000
 OPT| Maximum step size is converged                                          NO
 OPT|
 OPT| RMS step size                                                 0.0058538243
 OPT| Convergence limit for RMS step size                           0.0015000000
 OPT| RMS step size is converged                                              NO
 OPT|
 OPT| Maximum gradient                                              0.0076536284
 OPT| Convergence limit for maximum gradient                        0.0004500000
 OPT| Maximum gradient is converged                                           NO
 OPT|
 OPT| RMS gradient                                                  0.0024394265
 OPT| Convergence limit for RMS gradient                            0.0003000000
 OPT| RMS gradient is converged                                               NO
 OPT|
 OPT| Pressure deviation [bar]                                 -13765.4930237572
 OPT| Pressure tolerance [bar]                                    100.0000000000
 OPT| Pressure is converged                                                   NO
 OPT| **************************************************************************
 OPT| Estimated peak process memory after this step [MiB]                    169

 --------------------------
 OPTIMIZATION STEP:      3
 --------------------------

 CELL| Volume [angstrom^3]:                                           277.494510
 CELL| Vector a [angstrom]:       6.634     0.000     0.000   |a| =     6.634205
 CELL| Vector b [angstrom]:       0.000     6.200     0.000   |b| =     6.200121
 CELL| Vector c [angstrom]:      -1.158     0.000     6.746   |c| =     6.845018
 CELL| Angle (b,c), alpha [degree]:                                    90.000000
 CELL| Angle (a,c), beta  [degree]:                                    99.742806
 CELL| Angle (a,b), gamma [degree]:                                    90.000000
 CELL| Numerically orthorhombic:                                              NO
 CELL| Periodicity                                                           XYZ

 Extrapolation method: ASPC

 Number of electrons:                                                         88
 Number of occupied orbitals:                                                 44
 Number of molecular orbitals:                                                96

 Number of orbital functions:                                                 96
 Number of independent orbital functions:                                     96


 SCF WAVEFUNCTION OPTIMIZATION

  Step     Update method      Time    Convergence         Total energy    Change
  ------------------------------------------------------------------------------
     1 TBLite/Diag 0.40E+00    0.0     0.00804140       -52.8732295337 -5.29E+01
     2 TBLite/Diag 0.40E+00    0.0     0.00055716       -52.8732312436 -1.71E-06
     3 TBLite/Diag 0.40E+00    0.0     0.00018967       -52.8732312775 -3.39E-08
     4 TBLite/Diag 0.40E+00    0.0     0.00012480       -52.8732313008 -2.33E-08
     5 TBLite/Diag 0.40E+00    0.0     0.00003371       -52.8732313083 -7.57E-09
     6 TBLite/Diag 0.40E+00    0.0     0.00000759       -52.8732313085 -1.42E-10
     7 TBLite/Diag 0.40E+00    0.0     0.00000076       -52.8732313085 -2.82E-12
     8 TBLite/Diag 0.40E+00    0.0     0.00000014       -52.8732313085 -1.07E-13
     9 TBLite/Diag 0.40E+00    0.0     0.00000004       -52.8732313085  2.84E-14
    10 TBLite/Diag 0.40E+00    0.0     0.00000001       -52.8732313085 -2.84E-14
    11 TBLite/Diag 0.40E+00    0.0     1.3834E-09       -52.8732313085 -7.11E-15
    12 TBLite/Diag 0.40E+00    0.0     2.6740E-10       -52.8732313085 -6.39E-14

  *** SCF run converged in    12 steps ***


  Core Hamiltonian energy:                                    -53.59427672179305
  Repulsive potential energy:                                   0.58153690939146
  Electrostatic energy:                                         0.19255746693182
  Self-consistent dispersion energy:                            0.00000000000000
  Non-self consistent dispersion energy:                       -0.05304896300045
  Correction for halogen bonding:                               0.00000000000000
  Electronic entropic energy:                                  -0.00000000000000
  Fermi energy:                                                -0.32675365267500

  Total energy:                                               -52.87323130847022
  Total energy (extrapolated to T->0):                        -52.87323130847022

 ENERGY| Total FORCE_EVAL ( QS ) energy [hartree]            -52.873231308470224

 OPT| **************************************************************************
 OPT| Step number                                                              3
 OPT| Optimization method                                                   BFGS
 OPT| Total energy [hartree]                                      -52.8732313085
 OPT| Internal pressure [bar]                                  -11270.9614483302
 OPT| Effective energy change [hartree]                            -0.0009147953
 OPT| Predicted energy change [hartree]                            -0.0006040547
 OPT| Scaling factor                                                0.0000000000
 OPT| Step size                                                     0.0188459182
 OPT| Trust radius                                                  0.4724315332
 OPT| Decrease in energy                                                     YES
 OPT| Used time [s]                                                        0.260
 OPT|
 OPT| Maximum step size                                             0.0188459182
 OPT| Convergence limit for maximum step size                       0.0030000000
 OPT| Maximum step size is converged                                          NO
 OPT|
 OPT| RMS step size                                                 0.0059431253
 OPT| Convergence limit for RMS step size                           0.0015000000
 OPT| RMS step size is converged                                              NO
 OPT|
 OPT| Maximum gradient                                              0.0062383236
 OPT| Convergence limit for maximum gradient                        0.0004500000
 OPT| Maximum gradient is converged                                           NO
 OPT|
 OPT| RMS gradient                                                  0.0025936112
 OPT| Convergence limit for RMS gradient                            0.0003000000
 OPT| RMS gradient is converged                                               NO
 OPT|
 OPT| Pressure deviation [bar]                                 -11270.9614483302
 OPT| Pressure tolerance [bar]                                    100.0000000000
 OPT| Pressure is converged                                                   NO
 OPT| **************************************************************************
 OPT| Estimated peak process memory after this step [MiB]                    169

 --------------------------
 OPTIMIZATION STEP:      4
 --------------------------

 CELL| Volume [angstrom^3]:                                           275.413068
 CELL| Vector a [angstrom]:       6.617     0.000     0.000   |a| =     6.617434
 CELL| Vector b [angstrom]:       0.000     6.187     0.000   |b| =     6.186623
 CELL| Vector c [angstrom]:      -1.143    -0.000     6.727   |c| =     6.823683
 CELL| Angle (b,c), alpha [degree]:                                    90.000000
 CELL| Angle (a,c), beta  [degree]:                                    99.641065
 CELL| Angle (a,b), gamma [degree]:                                    90.000000
 CELL| Numerically orthorhombic:                                              NO
 CELL| Periodicity                                                           XYZ

 Extrapolation method: ASPC

 Number of electrons:                                                         88
 Number of occupied orbitals:                                                 44
 Number of molecular orbitals:                                                96

 Number of orbital functions:                                                 96
 Number of independent orbital functions:                                     96


 SCF WAVEFUNCTION OPTIMIZATION

  Step     Update method      Time    Convergence         Total energy    Change
  ------------------------------------------------------------------------------
     1 TBLite/Diag 0.40E+00    0.0     0.01111859       -52.8745548833 -5.29E+01
     2 TBLite/Diag 0.40E+00    0.0     0.00185674       -52.8745628498 -7.97E-06
     3 TBLite/Diag 0.40E+00    0.0     0.00015986       -52.8745630406 -1.91E-07
     4 TBLite/Diag 0.40E+00    0.0     0.00014596       -52.8745630515 -1.09E-08
     5 TBLite/Diag 0.40E+00    0.0     0.00007126       -52.8745630684 -1.69E-08
     6 TBLite/Diag 0.40E+00    0.0     0.00001076       -52.8745630689 -5.48E-10
     7 TBLite/Diag 0.40E+00    0.0     0.00000181       -52.8745630690 -1.17E-11
     8 TBLite/Diag 0.40E+00    0.0     0.00000038       -52.8745630690 -6.89E-13
     9 TBLite/Diag 0.40E+00    0.0     0.00000005       -52.8745630690 -1.42E-14
    10 TBLite/Diag 0.40E+00    0.0     0.00000001       -52.8745630690  7.82E-14
    11 TBLite/Diag 0.40E+00    0.0     4.0534E-09       -52.8745630690  2.13E-14
    12 TBLite/Diag 0.40E+00    0.0     3.0937E-10       -52.8745630690 -1.07E-13

  *** SCF run converged in    12 steps ***


  Core Hamiltonian energy:                                    -53.59719023450999
  Repulsive potential energy:                                   0.58278384116641
  Electrostatic energy:                                         0.19330632201818
  Self-consistent dispersion energy:                            0.00000000000000
  Non-self consistent dispersion energy:                       -0.05346299762645
  Correction for halogen bonding:                               0.00000000000000
  Electronic entropic energy:                                  -0.00000000000000
  Fermi energy:                                                -0.32654524385207

  Total energy:                                               -52.87456306895186
  Total energy (extrapolated to T->0):                        -52.87456306895186

 ENERGY| Total FORCE_EVAL ( QS ) energy [hartree]            -52.874563068951858

 OPT| **************************************************************************
 OPT| Step number                                                              4
 OPT| Optimization method                                                   BFGS
 OPT| Total energy [hartree]                                      -52.8745630690
 OPT| Internal pressure [bar]                                   -8976.2930176448
 OPT| Effective energy change [hartree]                            -0.0013317605
 OPT| Predicted energy change [hartree]                            -0.0009372763
 OPT| Scaling factor                                                0.0000000000
 OPT| Step size                                                     0.0358818629
 OPT| Trust radius                                                  0.4724315332
 OPT| Decrease in energy                                                     YES
 OPT| Used time [s]                                                        0.216
 OPT|
 OPT| Maximum step size                                             0.0358818629
 OPT| Convergence limit for maximum step size                       0.0030000000
 OPT| Maximum step size is converged                                          NO
 OPT|
 OPT| RMS step size                                                 0.0112030098
 OPT| Convergence limit for RMS step size                           0.0015000000
 OPT| RMS step size is converged                                              NO
 OPT|
 OPT| Maximum gradient                                              0.0065841559
 OPT| Convergence limit for maximum gradient                        0.0004500000
 OPT| Maximum gradient is converged                                           NO
 OPT|
 OPT| RMS gradient                                                  0.0028185840
 OPT| Convergence limit for RMS gradient                            0.0003000000
 OPT| RMS gradient is converged                                               NO
 OPT|
 OPT| Pressure deviation [bar]                                  -8976.2930176448
 OPT| Pressure tolerance [bar]                                    100.0000000000
 OPT| Pressure is converged                                                   NO
 OPT| **************************************************************************
 OPT| Estimated peak process memory after this step [MiB]                    170

 --------------------------
 OPTIMIZATION STEP:      5
 --------------------------

 CELL| Volume [angstrom^3]:                                           272.965414
 CELL| Vector a [angstrom]:       6.599     0.000     0.000   |a| =     6.599185
 CELL| Vector b [angstrom]:       0.000     6.169     0.000   |b| =     6.168647
 CELL| Vector c [angstrom]:      -1.124     0.000     6.705   |c| =     6.798985
 CELL| Angle (b,c), alpha [degree]:                                    90.000000
 CELL| Angle (a,c), beta  [degree]:                                    99.515227
 CELL| Angle (a,b), gamma [degree]:                                    90.000000
 CELL| Numerically orthorhombic:                                              NO
 CELL| Periodicity                                                           XYZ

 Extrapolation method: ASPC

 Number of electrons:                                                         88
 Number of occupied orbitals:                                                 44
 Number of molecular orbitals:                                                96

 Number of orbital functions:                                                 96
 Number of independent orbital functions:                                     96


 SCF WAVEFUNCTION OPTIMIZATION

  Step     Update method      Time    Convergence         Total energy    Change
  ------------------------------------------------------------------------------
     1 TBLite/Diag 0.40E+00    0.0     0.01002992       -52.8757679438 -5.29E+01
     2 TBLite/Diag 0.40E+00    0.0     0.00028902       -52.8757688053 -8.62E-07
     3 TBLite/Diag 0.40E+00    0.0     0.00013836       -52.8757688765 -7.12E-08
     4 TBLite/Diag 0.40E+00    0.0     0.00006880       -52.8757688855 -8.99E-09
     5 TBLite/Diag 0.40E+00    0.0     0.00002255       -52.8757688883 -2.89E-09
     6 TBLite/Diag 0.40E+00    0.0     0.00000302       -52.8757688884 -4.47E-11
     7 TBLite/Diag 0.40E+00    0.0     0.00000088       -52.8757688884 -1.85E-12
     8 TBLite/Diag 0.40E+00    0.0     0.00000025       -52.8757688884 -3.34E-13
     9 TBLite/Diag 0.40E+00    0.0     0.00000002       -52.8757688884  4.26E-14
    10 TBLite/Diag 0.40E+00    0.0     7.2178E-09       -52.8757688884 -2.84E-14
    11 TBLite/Diag 0.40E+00    0.0     1.3323E-09       -52.8757688884  1.42E-14
    12 TBLite/Diag 0.40E+00    0.0     1.0267E-10       -52.8757688884  8.53E-14

  *** SCF run converged in    12 steps ***


  Core Hamiltonian energy:                                    -53.60164804851306
  Repulsive potential energy:                                   0.58669138264916
  Electrostatic energy:                                         0.19315073841257
  Self-consistent dispersion energy:                            0.00000000000000
  Non-self consistent dispersion energy:                       -0.05396296093759
  Correction for halogen bonding:                               0.00000000000000
  Electronic entropic energy:                                  -0.00000000000000
  Fermi energy:                                                -0.32546915446081

  Total energy:                                               -52.87576888838893
  Total energy (extrapolated to T->0):                        -52.87576888838893

 ENERGY| Total FORCE_EVAL ( QS ) energy [hartree]            -52.875768888388926

 OPT| **************************************************************************
 OPT| Step number                                                              5
 OPT| Optimization method                                                   BFGS
 OPT| Total energy [hartree]                                      -52.8757688884
 OPT| Internal pressure [bar]                                   -5206.9783035347
 OPT| Effective energy change [hartree]                            -0.0012058194
 OPT| Predicted energy change [hartree]                            -0.0008444873
 OPT| Scaling factor                                                0.0000000000
 OPT| Step size                                                     0.0413174463
 OPT| Trust radius                                                  0.4724315332
 OPT| Decrease in energy                                                     YES
 OPT| Used time [s]                                                        0.217
 OPT|
 OPT| Maximum step size                                             0.0413174463
 OPT| Convergence limit for maximum step size                       0.0030000000
 OPT| Maximum step size is converged                                          NO
 OPT|
 OPT| RMS step size                                                 0.0124004178
 OPT| Convergence limit for RMS step size                           0.0015000000
 OPT| RMS step size is converged                                              NO
 OPT|
 OPT| Maximum gradient                                              0.0071789995
 OPT| Convergence limit for maximum gradient                        0.0004500000
 OPT| Maximum gradient is converged                                           NO
 OPT|
 OPT| RMS gradient                                                  0.0026092414
 OPT| Convergence limit for RMS gradient                            0.0003000000
 OPT| RMS gradient is converged                                               NO
 OPT|
 OPT| Pressure deviation [bar]                                  -5206.9783035347
 OPT| Pressure tolerance [bar]                                    100.0000000000
 OPT| Pressure is converged                                                   NO
 OPT| **************************************************************************
 OPT| Estimated peak process memory after this step [MiB]                    170

 --------------------------
 OPTIMIZATION STEP:      6
 --------------------------

 CELL| Volume [angstrom^3]:                                           270.526982
 CELL| Vector a [angstrom]:       6.583     0.000     0.000   |a| =     6.583365
 CELL| Vector b [angstrom]:      -0.000     6.147     0.000   |b| =     6.147231
 CELL| Vector c [angstrom]:      -1.104    -0.000     6.685   |c| =     6.775191
 CELL| Angle (b,c), alpha [degree]:                                    90.000000
 CELL| Angle (a,c), beta  [degree]:                                    99.373885
 CELL| Angle (a,b), gamma [degree]:                                    90.000000
 CELL| Numerically orthorhombic:                                              NO
 CELL| Periodicity                                                           XYZ

 Extrapolation method: ASPC

 Number of electrons:                                                         88
 Number of occupied orbitals:                                                 44
 Number of molecular orbitals:                                                96

 Number of orbital functions:                                                 96
 Number of independent orbital functions:                                     96


 SCF WAVEFUNCTION OPTIMIZATION

  Step     Update method      Time    Convergence         Total energy    Change
  ------------------------------------------------------------------------------
     1 TBLite/Diag 0.40E+00    0.0     0.00754869       -52.8767872161 -5.29E+01
     2 TBLite/Diag 0.40E+00    0.0     0.00098469       -52.8767917290 -4.51E-06
     3 TBLite/Diag 0.40E+00    0.0     0.00016536       -52.8767919008 -1.72E-07
     4 TBLite/Diag 0.40E+00    0.0     0.00006711       -52.8767919063 -5.57E-09
     5 TBLite/Diag 0.40E+00    0.0     0.00003537       -52.8767919089 -2.55E-09
     6 TBLite/Diag 0.40E+00    0.0     0.00000922       -52.8767919093 -4.43E-10
     7 TBLite/Diag 0.40E+00    0.0     0.00000154       -52.8767919093 -7.18E-12
     8 TBLite/Diag 0.40E+00    0.0     0.00000080       -52.8767919093 -1.49E-12
     9 TBLite/Diag 0.40E+00    0.0     0.00000010       -52.8767919093 -7.11E-14
    10 TBLite/Diag 0.40E+00    0.0     0.00000002       -52.8767919093 -3.55E-14
    11 TBLite/Diag 0.40E+00    0.0     2.9496E-09       -52.8767919093  0.00E+00
    12 TBLite/Diag 0.40E+00    0.0     3.9428E-10       -52.8767919093  4.26E-14

  *** SCF run converged in    12 steps ***


  Core Hamiltonian energy:                                    -53.60321597066515
  Repulsive potential energy:                                   0.58730407463589
  Electrostatic energy:                                         0.19359339177968
  Self-consistent dispersion energy:                            0.00000000000000
  Non-self consistent dispersion energy:                       -0.05447340507751
  Correction for halogen bonding:                               0.00000000000000
  Electronic entropic energy:                                  -0.00000000000000
  Fermi energy:                                                -0.32536172057608

  Total energy:                                               -52.87679190932710
  Total energy (extrapolated to T->0):                        -52.87679190932710

 ENERGY| Total FORCE_EVAL ( QS ) energy [hartree]            -52.876791909327096

 OPT| **************************************************************************
 OPT| Step number                                                              6
 OPT| Optimization method                                                   BFGS
 OPT| Total energy [hartree]                                      -52.8767919093
 OPT| Internal pressure [bar]                                   -4106.1307150906
 OPT| Effective energy change [hartree]                            -0.0010230209
 OPT| Predicted energy change [hartree]                            -0.0007338422
 OPT| Scaling factor                                                0.0000000000
 OPT| Step size                                                     0.0404703053
 OPT| Trust radius                                                  0.4724315332
 OPT| Decrease in energy                                                     YES
 OPT| Used time [s]                                                        0.219
 OPT|
 OPT| Maximum step size                                             0.0404703053
 OPT| Convergence limit for maximum step size                       0.0030000000
 OPT| Maximum step size is converged                                          NO
 OPT|
 OPT| RMS step size                                                 0.0123332654
 OPT| Convergence limit for RMS step size                           0.0015000000
 OPT| RMS step size is converged                                              NO
 OPT|
 OPT| Maximum gradient                                              0.0074955090
 OPT| Convergence limit for maximum gradient                        0.0004500000
 OPT| Maximum gradient is converged                                           NO
 OPT|
 OPT| RMS gradient                                                  0.0022131788
 OPT| Convergence limit for RMS gradient                            0.0003000000
 OPT| RMS gradient is converged                                               NO
 OPT|
 OPT| Pressure deviation [bar]                                  -4106.1307150906
 OPT| Pressure tolerance [bar]                                    100.0000000000
 OPT| Pressure is converged                                                   NO
 OPT| **************************************************************************
 OPT| Estimated peak process memory after this step [MiB]                    170

 --------------------------
 OPTIMIZATION STEP:      7
 --------------------------

 CELL| Volume [angstrom^3]:                                           268.531836
 CELL| Vector a [angstrom]:       6.574     0.000     0.000   |a| =     6.573649
 CELL| Vector b [angstrom]:       0.000     6.126     0.000   |b| =     6.125996
 CELL| Vector c [angstrom]:      -1.086    -0.000     6.668   |c| =     6.756191
 CELL| Angle (b,c), alpha [degree]:                                    90.000000
 CELL| Angle (a,c), beta  [degree]:                                    99.253995
 CELL| Angle (a,b), gamma [degree]:                                    90.000000
 CELL| Numerically orthorhombic:                                              NO
 CELL| Periodicity                                                           XYZ

 Extrapolation method: ASPC

 Number of electrons:                                                         88
 Number of occupied orbitals:                                                 44
 Number of molecular orbitals:                                                96

 Number of orbital functions:                                                 96
 Number of independent orbital functions:                                     96


 SCF WAVEFUNCTION OPTIMIZATION

  Step     Update method      Time    Convergence         Total energy    Change
  ------------------------------------------------------------------------------
     1 TBLite/Diag 0.40E+00    0.0     0.00801868       -52.8775660000 -5.29E+01
     2 TBLite/Diag 0.40E+00    0.0     0.00026752       -52.8775670614 -1.06E-06
     3 TBLite/Diag 0.40E+00    0.0     0.00014117       -52.8775671259 -6.45E-08
     4 TBLite/Diag 0.40E+00    0.0     0.00007335       -52.8775671330 -7.14E-09
     5 TBLite/Diag 0.40E+00    0.0     0.00002391       -52.8775671369 -3.91E-09
     6 TBLite/Diag 0.40E+00    0.0     0.00000680       -52.8775671371 -1.23E-10
     7 TBLite/Diag 0.40E+00    0.0     0.00000079       -52.8775671371 -3.07E-12
     8 TBLite/Diag 0.40E+00    0.0     0.00000021       -52.8775671371 -1.21E-13
     9 TBLite/Diag 0.40E+00    0.0     0.00000002       -52.8775671371 -8.53E-14
    10 TBLite/Diag 0.40E+00    0.0     6.9659E-09       -52.8775671371 -7.11E-14
    11 TBLite/Diag 0.40E+00    0.0     1.8579E-09       -52.8775671371  1.56E-13
    12 TBLite/Diag 0.40E+00    0.0     3.2562E-10       -52.8775671371 -7.82E-14

  *** SCF run converged in    12 steps ***


  Core Hamiltonian energy:                                    -53.60420855956593
  Repulsive potential energy:                                   0.58825865502950
  Electrostatic energy:                                         0.19328490998951
  Self-consistent dispersion energy:                            0.00000000000000
  Non-self consistent dispersion energy:                       -0.05490214250923
  Correction for halogen bonding:                               0.00000000000000
  Electronic entropic energy:                                  -0.00000000000000
  Fermi energy:                                                -0.32498767044354

  Total energy:                                               -52.87756713705614
  Total energy (extrapolated to T->0):                        -52.87756713705614

 ENERGY| Total FORCE_EVAL ( QS ) energy [hartree]            -52.877567137056140

 OPT| **************************************************************************
 OPT| Step number                                                              7
 OPT| Optimization method                                                   BFGS
 OPT| Total energy [hartree]                                      -52.8775671371
 OPT| Internal pressure [bar]                                   -3233.4664995254
 OPT| Effective energy change [hartree]                            -0.0007752277
 OPT| Predicted energy change [hartree]                            -0.0005449629
 OPT| Scaling factor                                                0.0000000000
 OPT| Step size                                                     0.0401283190
 OPT| Trust radius                                                  0.4724315332
 OPT| Decrease in energy                                                     YES
 OPT| Used time [s]                                                        0.219
 OPT|
 OPT| Maximum step size                                             0.0401283190
 OPT| Convergence limit for maximum step size                       0.0030000000
 OPT| Maximum step size is converged                                          NO
 OPT|
 OPT| RMS step size                                                 0.0100554848
 OPT| Convergence limit for RMS step size                           0.0015000000
 OPT| RMS step size is converged                                              NO
 OPT|
 OPT| Maximum gradient                                              0.0070818391
 OPT| Convergence limit for maximum gradient                        0.0004500000
 OPT| Maximum gradient is converged                                           NO
 OPT|
 OPT| RMS gradient                                                  0.0020561701
 OPT| Convergence limit for RMS gradient                            0.0003000000
 OPT| RMS gradient is converged                                               NO
 OPT|
 OPT| Pressure deviation [bar]                                  -3233.4664995254
 OPT| Pressure tolerance [bar]                                    100.0000000000
 OPT| Pressure is converged                                                   NO
 OPT| **************************************************************************
 OPT| Estimated peak process memory after this step [MiB]                    170

 --------------------------
 OPTIMIZATION STEP:      8
 --------------------------

 CELL| Volume [angstrom^3]:                                           266.610855
 CELL| Vector a [angstrom]:       6.568     0.000     0.000   |a| =     6.567638
 CELL| Vector b [angstrom]:       0.000     6.102     0.000   |b| =     6.101721
 CELL| Vector c [angstrom]:      -1.070    -0.000     6.653   |c| =     6.738455
 CELL| Angle (b,c), alpha [degree]:                                    90.000000
 CELL| Angle (a,c), beta  [degree]:                                    99.135558
 CELL| Angle (a,b), gamma [degree]:                                    90.000000
 CELL| Numerically orthorhombic:                                              NO
 CELL| Periodicity                                                           XYZ

 Extrapolation method: ASPC

 Number of electrons:                                                         88
 Number of occupied orbitals:                                                 44
 Number of molecular orbitals:                                                96

 Number of orbital functions:                                                 96
 Number of independent orbital functions:                                     96


 SCF WAVEFUNCTION OPTIMIZATION

  Step     Update method      Time    Convergence         Total energy    Change
  ------------------------------------------------------------------------------
     1 TBLite/Diag 0.40E+00    0.0     0.00835672       -52.8782904207 -5.29E+01
     2 TBLite/Diag 0.40E+00    0.0     0.00056672       -52.8782918646 -1.44E-06
     3 TBLite/Diag 0.40E+00    0.0     0.00012411       -52.8782919353 -7.06E-08
     4 TBLite/Diag 0.40E+00    0.0     0.00009975       -52.8782919494 -1.42E-08
     5 TBLite/Diag 0.40E+00    0.0     0.00003659       -52.8782919548 -5.36E-09
     6 TBLite/Diag 0.40E+00    0.0     0.00000787       -52.8782919550 -1.87E-10
     7 TBLite/Diag 0.40E+00    0.0     0.00000253       -52.8782919550 -9.25E-12
     8 TBLite/Diag 0.40E+00    0.0     0.00000097       -52.8782919550 -2.59E-12
     9 TBLite/Diag 0.40E+00    0.0     0.00000010       -52.8782919550 -1.42E-14
    10 TBLite/Diag 0.40E+00    0.0     0.00000002       -52.8782919550 -6.39E-14
    11 TBLite/Diag 0.40E+00    0.0     1.0937E-09       -52.8782919550  1.28E-13
    12 TBLite/Diag 0.40E+00    0.0     2.8729E-10       -52.8782919550 -2.84E-14

  *** SCF run converged in    12 steps ***


  Core Hamiltonian energy:                                    -53.60286441725678
  Repulsive potential energy:                                   0.58645994216525
  Electrostatic energy:                                         0.19343594996384
  Self-consistent dispersion energy:                            0.00000000000000
  Non-self consistent dispersion energy:                       -0.05532342988056
  Correction for halogen bonding:                               0.00000000000000
  Electronic entropic energy:                                  -0.00000000000000
  Fermi energy:                                                -0.32501913401427

  Total energy:                                               -52.87829195500824
  Total energy (extrapolated to T->0):                        -52.87829195500824

 ENERGY| Total FORCE_EVAL ( QS ) energy [hartree]            -52.878291955008244

 OPT| **************************************************************************
 OPT| Step number                                                              8
 OPT| Optimization method                                                   BFGS
 OPT| Total energy [hartree]                                      -52.8782919550
 OPT| Internal pressure [bar]                                   -4316.8090120546
 OPT| Effective energy change [hartree]                            -0.0007248180
 OPT| Predicted energy change [hartree]                            -0.0005014775
 OPT| Scaling factor                                                0.0000000000
 OPT| Step size                                                     0.0458732029
 OPT| Trust radius                                                  0.4724315332
 OPT| Decrease in energy                                                     YES
 OPT| Used time [s]                                                        0.221
 OPT|
 OPT| Maximum step size                                             0.0458732029
 OPT| Convergence limit for maximum step size                       0.0030000000
 OPT| Maximum step size is converged                                          NO
 OPT|
 OPT| RMS step size                                                 0.0099660382
 OPT| Convergence limit for RMS step size                           0.0015000000
 OPT| RMS step size is converged                                              NO
 OPT|
 OPT| Maximum gradient                                              0.0064348255
 OPT| Convergence limit for maximum gradient                        0.0004500000
 OPT| Maximum gradient is converged                                           NO
 OPT|
 OPT| RMS gradient                                                  0.0021097629
 OPT| Convergence limit for RMS gradient                            0.0003000000
 OPT| RMS gradient is converged                                               NO
 OPT|
 OPT| Pressure deviation [bar]                                  -4316.8090120546
 OPT| Pressure tolerance [bar]                                    100.0000000000
 OPT| Pressure is converged                                                   NO
 OPT| **************************************************************************
 OPT| Estimated peak process memory after this step [MiB]                    170

 --------------------------
 OPTIMIZATION STEP:      9
 --------------------------

 CELL| Volume [angstrom^3]:                                           264.362385
 CELL| Vector a [angstrom]:       6.564     0.000     0.000   |a| =     6.563506
 CELL| Vector b [angstrom]:      -0.000     6.071     0.000   |b| =     6.070797
 CELL| Vector c [angstrom]:      -1.052    -0.000     6.635   |c| =     6.717541
 CELL| Angle (b,c), alpha [degree]:                                    90.000000
 CELL| Angle (a,c), beta  [degree]:                                    99.010133
 CELL| Angle (a,b), gamma [degree]:                                    90.000000
 CELL| Numerically orthorhombic:                                              NO
 CELL| Periodicity                                                           XYZ

 Extrapolation method: ASPC

 Number of electrons:                                                         88
 Number of occupied orbitals:                                                 44
 Number of molecular orbitals:                                                96

 Number of orbital functions:                                                 96
 Number of independent orbital functions:                                     96


 SCF WAVEFUNCTION OPTIMIZATION

  Step     Update method      Time    Convergence         Total energy    Change
  ------------------------------------------------------------------------------
     1 TBLite/Diag 0.40E+00    0.0     0.01074895       -52.8790793695 -5.29E+01
     2 TBLite/Diag 0.40E+00    0.0     0.00044148       -52.8790801593 -7.90E-07
     3 TBLite/Diag 0.40E+00    0.0     0.00013913       -52.8790802026 -4.33E-08
     4 TBLite/Diag 0.40E+00    0.0     0.00005935       -52.8790802127 -1.01E-08
     5 TBLite/Diag 0.40E+00    0.0     0.00001690       -52.8790802145 -1.81E-09
     6 TBLite/Diag 0.40E+00    0.0     0.00000550       -52.8790802146 -7.50E-11
     7 TBLite/Diag 0.40E+00    0.0     0.00000156       -52.8790802146 -6.52E-12
     8 TBLite/Diag 0.40E+00    0.0     0.00000034       -52.8790802146 -3.84E-13
     9 TBLite/Diag 0.40E+00    0.0     0.00000006       -52.8790802146  2.84E-14
    10 TBLite/Diag 0.40E+00    0.0     6.0268E-09       -52.8790802146  3.55E-14
    11 TBLite/Diag 0.40E+00    0.0     9.9148E-10       -52.8790802146 -1.07E-13

  *** SCF run converged in    11 steps ***


  Core Hamiltonian energy:                                    -53.60172625400054
  Repulsive potential energy:                                   0.58547568132723
  Electrostatic energy:                                         0.19299664125410
  Self-consistent dispersion energy:                            0.00000000000000
  Non-self consistent dispersion energy:                       -0.05582628316089
  Correction for halogen bonding:                               0.00000000000000
  Electronic entropic energy:                                  -0.00000000000000
  Fermi energy:                                                -0.32476553739635

  Total energy:                                               -52.87908021458011
  Total energy (extrapolated to T->0):                        -52.87908021458011

 ENERGY| Total FORCE_EVAL ( QS ) energy [hartree]            -52.879080214580107

 OPT| **************************************************************************
 OPT| Step number                                                              9
 OPT| Optimization method                                                   BFGS
 OPT| Total energy [hartree]                                      -52.8790802146
 OPT| Internal pressure [bar]                                   -4641.2278222466
 OPT| Effective energy change [hartree]                            -0.0007882596
 OPT| Predicted energy change [hartree]                            -0.0005461951
 OPT| Scaling factor                                                0.0000000000
 OPT| Step size                                                     0.0584377719
 OPT| Trust radius                                                  0.4724315332
 OPT| Decrease in energy                                                     YES
 OPT| Used time [s]                                                        0.218
 OPT|
 OPT| Maximum step size                                             0.0584377719
 OPT| Convergence limit for maximum step size                       0.0030000000
 OPT| Maximum step size is converged                                          NO
 OPT|
 OPT| RMS step size                                                 0.0116391222
 OPT| Convergence limit for RMS step size                           0.0015000000
 OPT| RMS step size is converged                                              NO
 OPT|
 OPT| Maximum gradient                                              0.0057277627
 OPT| Convergence limit for maximum gradient                        0.0004500000
 OPT| Maximum gradient is converged                                           NO
 OPT|
 OPT| RMS gradient                                                  0.0022162128
 OPT| Convergence limit for RMS gradient                            0.0003000000
 OPT| RMS gradient is converged                                               NO
 OPT|
 OPT| Pressure deviation [bar]                                  -4641.2278222466
 OPT| Pressure tolerance [bar]                                    100.0000000000
 OPT| Pressure is converged                                                   NO
 OPT| **************************************************************************
 OPT| Estimated peak process memory after this step [MiB]                    170

 --------------------------
 OPTIMIZATION STEP:     10
 --------------------------

 CELL| Volume [angstrom^3]:                                           261.718142
 CELL| Vector a [angstrom]:       6.561     0.000     0.000   |a| =     6.560614
 CELL| Vector b [angstrom]:      -0.000     6.033     0.000   |b| =     6.033086
 CELL| Vector c [angstrom]:      -1.033    -0.000     6.612   |c| =     6.692445
 CELL| Angle (b,c), alpha [degree]:                                    90.000000
 CELL| Angle (a,c), beta  [degree]:                                    98.878279
 CELL| Angle (a,b), gamma [degree]:                                    90.000000
 CELL| Numerically orthorhombic:                                              NO
 CELL| Periodicity                                                           XYZ

 Extrapolation method: ASPC

 Number of electrons:                                                         88
 Number of occupied orbitals:                                                 44
 Number of molecular orbitals:                                                96

 Number of orbital functions:                                                 96
 Number of independent orbital functions:                                     96


 SCF WAVEFUNCTION OPTIMIZATION

  Step     Update method      Time    Convergence         Total energy    Change
  ------------------------------------------------------------------------------
     1 TBLite/Diag 0.40E+00    0.0     0.00892292       -52.8799235222 -5.29E+01
     2 TBLite/Diag 0.40E+00    0.0     0.00093921       -52.8799255126 -1.99E-06
     3 TBLite/Diag 0.40E+00    0.0     0.00015006       -52.8799256381 -1.26E-07
     4 TBLite/Diag 0.40E+00    0.0     0.00007053       -52.8799256480 -9.85E-09
     5 TBLite/Diag 0.40E+00    0.0     0.00001983       -52.8799256499 -1.89E-09
     6 TBLite/Diag 0.40E+00    0.0     0.00000624       -52.8799256500 -1.60E-10
     7 TBLite/Diag 0.40E+00    0.0     0.00000172       -52.8799256500 -5.79E-12
     8 TBLite/Diag 0.40E+00    0.0     0.00000040       -52.8799256500 -5.33E-13
     9 TBLite/Diag 0.40E+00    0.0     0.00000005       -52.8799256500 -1.14E-13
    10 TBLite/Diag 0.40E+00    0.0     7.5233E-09       -52.8799256500  4.26E-14
    11 TBLite/Diag 0.40E+00    0.0     2.0297E-09       -52.8799256500  7.11E-15
    12 TBLite/Diag 0.40E+00    0.0     1.0106E-10       -52.8799256500 -2.13E-14

  *** SCF run converged in    12 steps ***


  Core Hamiltonian energy:                                    -53.59936366547856
  Repulsive potential energy:                                   0.58279016937195
  Electrostatic energy:                                         0.19307570760373
  Self-consistent dispersion energy:                            0.00000000000000
  Non-self consistent dispersion energy:                       -0.05642786152395
  Correction for halogen bonding:                               0.00000000000000
  Electronic entropic energy:                                  -0.00000000000000
  Fermi energy:                                                -0.32465943639284

  Total energy:                                               -52.87992565002683
  Total energy (extrapolated to T->0):                        -52.87992565002683

 ENERGY| Total FORCE_EVAL ( QS ) energy [hartree]            -52.879925650026834

 OPT| **************************************************************************
 OPT| Step number                                                             10
 OPT| Optimization method                                                   BFGS
 OPT| Total energy [hartree]                                      -52.8799256500
 OPT| Internal pressure [bar]                                   -5851.7332759954
 OPT| Effective energy change [hartree]                            -0.0008454354
 OPT| Predicted energy change [hartree]                            -0.0005967703
 OPT| Scaling factor                                                0.0000000000
 OPT| Step size                                                     0.0712637967
 OPT| Trust radius                                                  0.4724315332
 OPT| Decrease in energy                                                     YES
 OPT| Used time [s]                                                        0.225
 OPT|
 OPT| Maximum step size                                             0.0712637967
 OPT| Convergence limit for maximum step size                       0.0030000000
 OPT| Maximum step size is converged                                          NO
 OPT|
 OPT| RMS step size                                                 0.0136680370
 OPT| Convergence limit for RMS step size                           0.0015000000
 OPT| RMS step size is converged                                              NO
 OPT|
 OPT| Maximum gradient                                              0.0058208524
 OPT| Convergence limit for maximum gradient                        0.0004500000
 OPT| Maximum gradient is converged                                           NO
 OPT|
 OPT| RMS gradient                                                  0.0022726012
 OPT| Convergence limit for RMS gradient                            0.0003000000
 OPT| RMS gradient is converged                                               NO
 OPT|
 OPT| Pressure deviation [bar]                                  -5851.7332759954
 OPT| Pressure tolerance [bar]                                    100.0000000000
 OPT| Pressure is converged                                                   NO
 OPT| **************************************************************************
 OPT| Estimated peak process memory after this step [MiB]                    170

 --------------------------
 OPTIMIZATION STEP:     11
 --------------------------

 CELL| Volume [angstrom^3]:                                           258.949755
 CELL| Vector a [angstrom]:       6.559     0.000     0.000   |a| =     6.558848
 CELL| Vector b [angstrom]:       0.000     5.994     0.000   |b| =     5.994141
 CELL| Vector c [angstrom]:      -1.016     0.000     6.587   |c| =     6.664494
 CELL| Angle (b,c), alpha [degree]:                                    90.000000
 CELL| Angle (a,c), beta  [degree]:                                    98.768840
 CELL| Angle (a,b), gamma [degree]:                                    90.000000
 CELL| Numerically orthorhombic:                                              NO
 CELL| Periodicity                                                           XYZ

 Extrapolation method: ASPC

 Number of electrons:                                                         88
 Number of occupied orbitals:                                                 44
 Number of molecular orbitals:                                                96

 Number of orbital functions:                                                 96
 Number of independent orbital functions:                                     96


 SCF WAVEFUNCTION OPTIMIZATION

  Step     Update method      Time    Convergence         Total energy    Change
  ------------------------------------------------------------------------------
     1 TBLite/Diag 0.40E+00    0.0     0.00786577       -52.8807625698 -5.29E+01
     2 TBLite/Diag 0.40E+00    0.0     0.00044838       -52.8807638362 -1.27E-06
     3 TBLite/Diag 0.40E+00    0.0     0.00015791       -52.8807639141 -7.79E-08
     4 TBLite/Diag 0.40E+00    0.0     0.00009544       -52.8807639372 -2.31E-08
     5 TBLite/Diag 0.40E+00    0.0     0.00002755       -52.8807639411 -3.84E-09
     6 TBLite/Diag 0.40E+00    0.0     0.00000750       -52.8807639413 -1.65E-10
     7 TBLite/Diag 0.40E+00    0.0     0.00000071       -52.8807639413 -2.15E-12
     8 TBLite/Diag 0.40E+00    0.0     0.00000020       -52.8807639413 -9.95E-14
     9 TBLite/Diag 0.40E+00    0.0     0.00000006       -52.8807639413 -2.84E-14
    10 TBLite/Diag 0.40E+00    0.0     7.8156E-09       -52.8807639413 -8.53E-14
    11 TBLite/Diag 0.40E+00    0.0     1.4675E-09       -52.8807639413  7.11E-15
    12 TBLite/Diag 0.40E+00    0.0     2.3473E-10       -52.8807639413  2.13E-14

  *** SCF run converged in    12 steps ***


  Core Hamiltonian energy:                                    -53.59916490584984
  Repulsive potential energy:                                   0.58286516041576
  Electrostatic energy:                                         0.19260601494903
  Self-consistent dispersion energy:                            0.00000000000000
  Non-self consistent dispersion energy:                       -0.05707021077315
  Correction for halogen bonding:                               0.00000000000000
  Electronic entropic energy:                                  -0.00000000000000
  Fermi energy:                                                -0.32428791030146

  Total energy:                                               -52.88076394125819
  Total energy (extrapolated to T->0):                        -52.88076394125819

 ENERGY| Total FORCE_EVAL ( QS ) energy [hartree]            -52.880763941258195

 OPT| **************************************************************************
 OPT| Step number                                                             11
 OPT| Optimization method                                                   BFGS
 OPT| Total energy [hartree]                                      -52.8807639413
 OPT| Internal pressure [bar]                                   -4970.4453133512
 OPT| Effective energy change [hartree]                            -0.0008382912
 OPT| Predicted energy change [hartree]                            -0.0005932036
 OPT| Scaling factor                                                0.0000000000
 OPT| Step size                                                     0.0735951930
 OPT| Trust radius                                                  0.4724315332
 OPT| Decrease in energy                                                     YES
 OPT| Used time [s]                                                        0.226
 OPT|
 OPT| Maximum step size                                             0.0735951930
 OPT| Convergence limit for maximum step size                       0.0030000000
 OPT| Maximum step size is converged                                          NO
 OPT|
 OPT| RMS step size                                                 0.0140199157
 OPT| Convergence limit for RMS step size                           0.0015000000
 OPT| RMS step size is converged                                              NO
 OPT|
 OPT| Maximum gradient                                              0.0061870254
 OPT| Convergence limit for maximum gradient                        0.0004500000
 OPT| Maximum gradient is converged                                           NO
 OPT|
 OPT| RMS gradient                                                  0.0022642827
 OPT| Convergence limit for RMS gradient                            0.0003000000
 OPT| RMS gradient is converged                                               NO
 OPT|
 OPT| Pressure deviation [bar]                                  -4970.4453133512
 OPT| Pressure tolerance [bar]                                    100.0000000000
 OPT| Pressure is converged                                                   NO
 OPT| **************************************************************************
 OPT| Estimated peak process memory after this step [MiB]                    170

 --------------------------
 OPTIMIZATION STEP:     12
 --------------------------

 CELL| Volume [angstrom^3]:                                           256.177988
 CELL| Vector a [angstrom]:       6.558     0.000     0.000   |a| =     6.557990
 CELL| Vector b [angstrom]:       0.000     5.957     0.000   |b| =     5.956551
 CELL| Vector c [angstrom]:      -1.002     0.000     6.558   |c| =     6.634154
 CELL| Angle (b,c), alpha [degree]:                                    90.000000
 CELL| Angle (a,c), beta  [degree]:                                    98.685661
 CELL| Angle (a,b), gamma [degree]:                                    90.000000
 CELL| Numerically orthorhombic:                                              NO
 CELL| Periodicity                                                           XYZ

 Extrapolation method: ASPC

 Number of electrons:                                                         88
 Number of occupied orbitals:                                                 44
 Number of molecular orbitals:                                                96

 Number of orbital functions:                                                 96
 Number of independent orbital functions:                                     96


 SCF WAVEFUNCTION OPTIMIZATION

  Step     Update method      Time    Convergence         Total energy    Change
  ------------------------------------------------------------------------------
     1 TBLite/Diag 0.40E+00    0.0     0.00721021       -52.8815922771 -5.29E+01
     2 TBLite/Diag 0.40E+00    0.0     0.00073319       -52.8815945283 -2.25E-06
     3 TBLite/Diag 0.40E+00    0.0     0.00016050       -52.8815946279 -9.96E-08
     4 TBLite/Diag 0.40E+00    0.0     0.00012443       -52.8815946576 -2.97E-08
     5 TBLite/Diag 0.40E+00    0.0     0.00003336       -52.8815946643 -6.65E-09
     6 TBLite/Diag 0.40E+00    0.0     0.00000882       -52.8815946645 -2.62E-10
     7 TBLite/Diag 0.40E+00    0.0     0.00000122       -52.8815946645 -4.79E-12
     8 TBLite/Diag 0.40E+00    0.0     0.00000021       -52.8815946645 -2.13E-13
     9 TBLite/Diag 0.40E+00    0.0     0.00000003       -52.8815946645  6.39E-14
[...]
 CELL| Vector c [angstrom]:      -0.766     0.000     6.507   |c| =     6.552272
 CELL| Angle (b,c), alpha [degree]:                                    90.000000
 CELL| Angle (a,c), beta  [degree]:                                    96.712321
 CELL| Angle (a,b), gamma [degree]:                                    90.000000
 CELL| Numerically orthorhombic:                                              NO
 CELL| Periodicity                                                           XYZ

 Extrapolation method: ASPC

 Number of electrons:                                                         88
 Number of occupied orbitals:                                                 44
 Number of molecular orbitals:                                                96

 Number of orbital functions:                                                 96
 Number of independent orbital functions:                                     96


 SCF WAVEFUNCTION OPTIMIZATION

  Step     Update method      Time    Convergence         Total energy    Change
  ------------------------------------------------------------------------------
     1 TBLite/Diag 0.40E+00    0.0     0.00061544       -52.8856689199 -5.29E+01
     2 TBLite/Diag 0.40E+00    0.0     0.00004059       -52.8856689229 -2.99E-09
     3 TBLite/Diag 0.40E+00    0.0     0.00000956       -52.8856689232 -2.30E-10
     4 TBLite/Diag 0.40E+00    0.0     0.00000475       -52.8856689232 -7.57E-11
     5 TBLite/Diag 0.40E+00    0.0     0.00000090       -52.8856689232 -3.87E-12
     6 TBLite/Diag 0.40E+00    0.0     0.00000033       -52.8856689233 -2.84E-13
     7 TBLite/Diag 0.40E+00    0.0     0.00000006       -52.8856689233  1.42E-14
     8 TBLite/Diag 0.40E+00    0.0     0.00000002       -52.8856689233  2.84E-14
     9 TBLite/Diag 0.40E+00    0.0     3.7424E-09       -52.8856689233  2.84E-14
    10 TBLite/Diag 0.40E+00    0.0     3.9840E-10       -52.8856689233 -6.39E-14

  *** SCF run converged in    10 steps ***


  Core Hamiltonian energy:                                    -53.60065906735890
  Repulsive potential energy:                                   0.58256657524176
  Electrostatic energy:                                         0.19193485420160
  Self-consistent dispersion energy:                            0.00000000000000
  Non-self consistent dispersion energy:                       -0.05951128533453
  Correction for halogen bonding:                               0.00000000000000
  Electronic entropic energy:                                  -0.00000000000000
  Fermi energy:                                                -0.32590208686541

  Total energy:                                               -52.88566892325008
  Total energy (extrapolated to T->0):                        -52.88566892325008

 ENERGY| Total FORCE_EVAL ( QS ) energy [hartree]            -52.885668923250080

 OPT| **************************************************************************
 OPT| Step number                                                             84
 OPT| Optimization method                                                   BFGS
 OPT| Total energy [hartree]                                      -52.8856689233
 OPT| Internal pressure [bar]                                     -70.0946345121
 OPT| Effective energy change [hartree]                            -0.0000010574
 OPT| Predicted energy change [hartree]                            -0.0000007974
 OPT| Scaling factor                                                0.0000000000
 OPT| Step size                                                     0.0014498451
 OPT| Trust radius                                                  0.4724315332
 OPT| Decrease in energy                                                     YES
 OPT| Used time [s]                                                        0.225
 OPT|
 OPT| Maximum step size                                             0.0014498451
 OPT| Convergence limit for maximum step size                       0.0030000000
 OPT| Maximum step size is converged                                         YES
 OPT|
 OPT| RMS step size                                                 0.0005890138
 OPT| Convergence limit for RMS step size                           0.0015000000
 OPT| RMS step size is converged                                             YES
 OPT|
 OPT| Maximum gradient                                              0.0002001913
 OPT| Convergence limit for maximum gradient                        0.0004500000
 OPT| Maximum gradient is converged                                          YES
 OPT|
 OPT| RMS gradient                                                  0.0000668997
 OPT| Convergence limit for RMS gradient                            0.0003000000
 OPT| RMS gradient is converged                                              YES
 OPT|
 OPT| Pressure deviation [bar]                                    -70.0946345121
 OPT| Pressure tolerance [bar]                                    100.0000000000
 OPT| Pressure is converged                                                  YES
 OPT| **************************************************************************
 OPT| Estimated peak process memory after this step [MiB]                    170

 *******************************************************************************
 ***                    GEOMETRY OPTIMIZATION COMPLETED                      ***
 *******************************************************************************

 write_final_structure: Optimization converged, writing XYZ file gladly:
  14_cyclohexanedione_GFN1_gamma_cell_opt-FINAL-1_84.xyz

 write_final_structure: Optimization converged, writing CIF file gladly:
  14_cyclohexanedione_GFN1_gamma_cell_opt-FINAL-1_84.cif

 write_final_structure: Done!

                    Reevaluating energy at the minimum

 CELL| Volume [angstrom^3]:                                           248.977115
 CELL| Vector a [angstrom]:       6.636     0.000     0.000   |a| =     6.636092
 CELL| Vector b [angstrom]:       0.000     5.766     0.000   |b| =     5.765569
 CELL| Vector c [angstrom]:      -0.766     0.000     6.507   |c| =     6.552272
 CELL| Angle (b,c), alpha [degree]:                                    90.000000
 CELL| Angle (a,c), beta  [degree]:                                    96.712321
 CELL| Angle (a,b), gamma [degree]:                                    90.000000
 CELL| Numerically orthorhombic:                                              NO
 CELL| Periodicity                                                           XYZ

 Extrapolation method: ASPC

 Number of electrons:                                                         88
 Number of occupied orbitals:                                                 44
 Number of molecular orbitals:                                                96

 Number of orbital functions:                                                 96
 Number of independent orbital functions:                                     96


 SCF WAVEFUNCTION OPTIMIZATION

  Step     Update method      Time    Convergence         Total energy    Change
  ------------------------------------------------------------------------------
     1 TBLite/Diag 0.40E+00    0.0     2.5175E-10       -52.8856689233 -5.29E+01

  *** SCF run converged in     1 steps ***


  Core Hamiltonian energy:                                    -53.60065906722859
  Repulsive potential energy:                                   0.58256657524176
  Electrostatic energy:                                         0.19193485407126
  Self-consistent dispersion energy:                            0.00000000000000
  Non-self consistent dispersion energy:                       -0.05951128533453
  Correction for halogen bonding:                               0.00000000000000
  Electronic entropic energy:                                  -0.00000000000000
  Fermi energy:                                                -0.32590208684944

  Total energy:                                               -52.88566892325010
  Total energy (extrapolated to T->0):                        -52.88566892325010

 ENERGY| Total FORCE_EVAL ( QS ) energy [hartree]            -52.885668923250101

 -------------------------------------------------------------------------------
 -                                                                             -
 -                                DBCSR STATISTICS                             -
 -                                                                             -
 -------------------------------------------------------------------------------
 COUNTER                                    TOTAL       BLAS       SMM       ACC
 flops     2 x    32 x     2             81592320       0.0%    100.0%      0.0%     
 flops     2 x     2 x    96            115101696       0.0%    100.0%      0.0%     
 flops     4 x    32 x     2            163184640       0.0%    100.0%      0.0%     
 flops     2 x    32 x     4            163184640       0.0%    100.0%      0.0%     
 flops     4 x     2 x    96            216662016       0.0%    100.0%      0.0%     
 flops     2 x     4 x    96            216662016       0.0%    100.0%      0.0%     
 flops     4 x    32 x     4            326369280       0.0%    100.0%      0.0%     
 flops     4 x     4 x    96            460406784       0.0%    100.0%      0.0%     
 flops inhomo. stacks                           0       0.0%      0.0%      0.0%
 flops total                         1.743163E+09       0.0%    100.0%      0.0%
 flops max/rank                      1.743163E+09       0.0%    100.0%      0.0%
 matmuls inhomo. stacks                         0       0.0%      0.0%      0.0%
 matmuls total                            1856736       0.0%    100.0%      0.0%
 number of processed stacks                  6068       0.0%    100.0%      0.0%
 average stack size                                     0.0     306.0       0.0
 marketing flops                     1.628062E+09
 -------------------------------------------------------------------------------
 # multiplications                           1517
 max memory usage/rank              13.673959E+09
 # max total images/rank                        1
 # max 3D layers                                1
 # MPI messages exchanged                       0
 -------------------------------------------------------------------------------
 -                                                                             -
 -                      DBCSR MESSAGE PASSING PERFORMANCE                      -
 -                                                                             -
 -------------------------------------------------------------------------------
 ROUTINE             CALLS      AVE VOLUME [Bytes]
 MP_Bcast                9                     12.
 MP_Allreduce         6790                      8.
 MP_Alltoall         48715                  49470.
 MP_ISend             6068                   4459.
 MP_IRecv             6068                   4459.
 -------------------------------------------------------------------------------

 -------------------------------------------------------------------------------
 -                                                                             -
 -                          OFFLOAD MEMPOOL STATISTICS                         -
 -                                                                             -
 -------------------------------------------------------------------------------
 Memory consumption                Number of allocations  Used [MiB]  Size [MiB]
 Device                                                1           0           0
 Host                                                  1           0           0
 -------------------------------------------------------------------------------

 MEMORY| Estimated peak process memory [MiB]                                 170

 -------------------------------------------------------------------------------
 -                                                                             -
 -                         MESSAGE PASSING PERFORMANCE                         -
 -                                                                             -
 -------------------------------------------------------------------------------

 ROUTINE             CALLS      AVE VOLUME [Bytes]
 MP_Group               85
 MP_Bcast             2202                    388.
 MP_Allreduce        17429                    222.
 MP_Sync              1186
 MP_comm_split        1101
 -------------------------------------------------------------------------------


 -------------------------------------------------------------------------------
 -                                                                             -
 -                           R E F E R E N C E S                               -
 -                                                                             -
 -------------------------------------------------------------------------------
 
 CP2K version 2026.1 (Development Version), the CP2K developers group (2026).
 CP2K is freely available from https://www.cp2k.org/ .
 
 M. Iannuzzi, J. Wilhelm, F. Stein, A. Bussy, H. Elgabarty, D. Golze, A. Hehn, 
 M. Graml, S. Marek, B. Sertcan Gökmen, C. Schran, H. Forbert, R. Z. 
 Khaliullin, A. Kozhevnikov, M. Taillefumier, R. Meli, V. V. Rybkin, M. Brehm, 
 R. Schade, O. Schütt, J. V. Pototschnig, H. Mirhosseini, A. Knüpfer, D. Marx, 
 M. Krack, J. Hutter, T. D. Kühne.
 J. Phys. Chem. B 130, 1237-1310 (2026).
 The CP2K Program Package Made Simple.
 https://doi.org/10.1021/acs.jpcb.5c05851

 A. Katbashev, M. Stahn, T. Rose, V. Alizadeh, M. Friede, C. Plett, P. 
 Steinbach, S. Ehlert.
 J. Phys. Chem. A 129, 2667-2682 (2025).
 Overview on Building Blocks and Applications of Efficient and Robust Extended 
 Tight Binding.
 https://doi.org/10.1021/acs.jpca.4c08263

 T. D. Kühne, M. Iannuzzi, M. Del Ben, V. V. Rybkin, P. Seewald, F. Stein, T. 
 Laino, R. Z. Khaliullin, O. Schütt, F. Schiffmann, D. Golze, J. Wilhelm, S. 
 Chulkov, M. H. Bani-Hashemian, V. Weber, U. Borstnik, M. Taillefumier, A. S. 
 Jakobovits, A. Lazzaro, H. Pabst, T. Müller, R. Schade, M. Guidon, S. 
 Andermatt, N. Holmberg, G. K. Schenter, A. Hehn, A. Bussy, F. Belleflamme, G. 
 Tabacchi, A. Glöß, M. Lass, I. Bethune, C. J. Mundy, C. Plessl, M. Watkins, 
 J. VandeVondele, M. Krack, J. Hutter.
 J. Chem. Phys. 152, 194103 (2020).
 CP2K: An electronic structure and molecular dynamics software package - 
 Quickstep: Efficient and accurate electronic structure calculations.
 https://doi.org/10.1063/5.0007045

 P. Pracht, E. Caldeweyher, S. Ehlert, S. Grimme.
 ChemRxiv, (2019).
 A Robust Non-Self-Consistent Tight-Binding Quantum Chemistry Method for large 
 Molecules.
 https://doi.org/10.26434/chemrxiv.8326202.v1

 S. Grimme, C. Bannwarth, P. Shushkov.
 J. Chem. Theory Comput. 13, 1989 (2017).
 A Robust and Accurate Tight-Binding Quantum Chemical Method for Structures, 
 Vibrational Frequencies, and Noncovalent Interactions of Large Molecular 
 Systems Parametrized for All spd-Block Elements (Z = 1-86).
 https://doi.org/10.1021/acs.jctc.7b00118

 O. Schuett, P. Messmer, J. Hutter, J. VandeVondele.
 Electronic Structure Calculations on Graphics Processing Units, 173-190 (2016).
 GPU-Accelerated Sparse Matrix-Matrix Multiplication for Linear Scaling Density 
 Functional Theory.
 https://doi.org/10.1002/9781118670712.ch8

 A. Heinecke, G. Henry, M. Hutchinson, H. Pabst.
 Proceedings of Intl. Supercomputing Conference, 981-991 (2016).
 LIBXSMM: Accelerating Small Matrix Multiplications by Runtime Code Generation.
 https://doi.org/10.1109/SC.2016.83

 U. Borstnik, J. VandeVondele, V. Weber, J. Hutter.
 Parallel Comput. 40, 47-58 (2014).
 Sparse matrix multiplication: The distributed block-compressed sparse row 
 library.
 https://doi.org/10.1016/j.parco.2014.03.012

 T. D. Kühne, M. Krack, F. R. Mohamed, M. Parrinello.
 Phys. Rev. Lett. 98, 066401 (2007).
 Efficient and accurate Car-Parrinello-like approach to Born-Oppenheimer 
 molecular dynamics.
 https://doi.org/10.1103/PhysRevLett.98.066401

 M. Frigo, S. G. Johnson.
 Proc. IEEE 93, 216-231 (2005).
 The design and implementation of FFTW3.
 https://doi.org/10.1109/JPROC.2004.840301

 J. Kolafa.
 J. Comput. Chem. 25, 335-342 (2004).
 Time-reversible always stable predictor-corrector method for molecular dynamics 
 of polarizable molecules.
 https://doi.org/10.1002/jcc.10385

 N. D. Mermin.
 Phys. Rev. 137, A1441-A1443 (1965).
 Thermal Properties of the Inhomogeneous Electron Gas.
 https://doi.org/10.1103/PhysRev.137.A1441


 -------------------------------------------------------------------------------
 -                                                                             -
 -                                T I M I N G                                  -
 -                                                                             -
 -------------------------------------------------------------------------------
 SUBROUTINE                       CALLS  ASD         SELF TIME        TOTAL TIME
                                MAXIMUM       AVERAGE  MAXIMUM  AVERAGE  MAXIMUM
 CP2K                                 1  1.0    0.002    0.002   19.441   19.441
 cp_cell_opt                          1  2.0    0.000    0.000   19.433   19.433
 geoopt_bfgs                          1  3.0    0.007    0.007   19.433   19.433
 cp_eval_at                          86  4.0    0.008    0.008   19.315   19.315
 qs_forces                           85  5.0    0.004    0.004   19.257   19.257
 build_tblite_matrices              171  7.0    8.537    8.537    8.663    8.663
 rebuild_ks_matrix                 1017  9.7    0.001    0.001    7.939    7.939
 build_tblite_ks_matrix            1017 10.7    7.932    7.932    7.939    7.939
 qs_ks_update_qs_env_forces          85  6.0    0.000    0.000    7.795    7.795
 qs_energies                         86  6.0    0.002    0.002    6.280    6.280
 qs_energies_init_hamiltonians       86  7.0    0.000    0.000    3.613    3.613
 scf_env_do_scf                      86  7.0    0.001    0.001    2.153    2.153
 scf_env_do_scf_inner_loop          932  8.0    0.059    0.059    2.147    2.147
 qs_scf_new_mos                     932  9.0    0.003    0.003    1.815    1.815
 eigensolver                        932 10.0    0.009    0.009    0.674    0.674
 cp_dbcsr_plus_fm_fm_t             1102 10.8    0.005    0.005    0.647    0.647
 cp_fm_syevd                       1101 10.6    0.002    0.002    0.640    0.640
 calculate_dm_sparse               1017 10.0    0.003    0.003    0.606    0.606
 cp_fm_syevd_base                  1101 11.6    0.586    0.586    0.586    0.586
 dbcsr_multiply_generic            1517 12.0    0.025    0.025    0.583    0.583
 dbcsr_complete_redistribute       4898 12.2    0.385    0.385    0.504    0.504
 copy_dbcsr_to_fm                  2279 10.5    0.008    0.008    0.494    0.494
 init_scf_run                        86  7.0    0.001    0.001    0.421    0.421
 scf_env_initial_rho_setup           86  8.0    0.001    0.001    0.389    0.389
 -------------------------------------------------------------------------------

 The number of warnings for this run is : 0
 
 -------------------------------------------------------------------------------
  **** **** ******  **  PROGRAM ENDED AT                 2026-05-23 22:47:08.338
 ***** ** ***  *** **   PROGRAM RAN ON                                spark-c86c
 **    ****   ******    PROGRAM RAN BY                                  kuehne88
 ***** **    ** ** **   PROGRAM PROCESS ID                               2263330
  **** **  *******  **  PROGRAM STOPPED IN /home/kuehne88/periodic-gfn2-benchmar
                                           ks/X23b/runs/cellopt_gamma/GFN1/14-cy
                                           clohexanedione_GFN1_gamma_cellopt
