 DBCSR| CPU Multiplication driver                                           BLAS (U)
 DBCSR| Multrec recursion limit                                              512 (U)
 DBCSR| Multiplication stack size                                           1000 (D)
 DBCSR| Maximum elements for images                                    UNLIMITED (U)
 DBCSR| Multiplicative factor virtual images                                   1 (U)
 DBCSR| Use multiplication densification                                       T (D)
 DBCSR| Multiplication size stacks                                             3 (U)
 DBCSR| Use memory pool for CPU allocation                                     F (U)
 DBCSR| Number of 3D layers                                               SINGLE (U)
 DBCSR| Use MPI memory allocation                                              F (U)
 DBCSR| Use RMA algorithm                                                      F (U)
 DBCSR| Use Communication thread                                               T (U)
 DBCSR| Communication thread load                                             75 (D)
 DBCSR| MPI: My process id                                                     0
 DBCSR| MPI: Number of processes                                               1
 DBCSR| OMP: Current number of threads                                         4
 DBCSR| OMP: Max number of threads                                             4
 DBCSR| Split modifier for TAS multiplication algorithm                  1.0E+00 (U)


  **** **** ******  **  PROGRAM STARTED AT               2026-07-16 15:17:46.627
 ***** ** ***  *** **   PROGRAM STARTED ON                                 terok
 **    ****   ******    PROGRAM STARTED BY                              kuehne88
 ***** **    ** ** **   PROGRAM PROCESS ID                                203583
  **** **  *******  **  PROGRAM STARTED IN /home/kuehne88/work/codex-gxtb-cp2k-b
                                           lock-helpers-20260716/runtime_block_h
                                           elpers_derivatives_baseline/k290_222_
                                           force_stress_debug

 CP2K| version string:                 CP2K version 2026.1 (Development Version)
 CP2K| source code revision number:                                   28df9380ab
 CP2K| cp2kflags: omp fftw3 libxc parallel scalapack spglib s_dftd3 mctc-lib tbl
 CP2K|            ite tblite_gxtb
 CP2K| is freely available from                            https://www.cp2k.org/
 CP2K| Program compiled at                                   2026-07-16 14:15:14
 CP2K| Program compiled on                                                 terok
 CP2K| Program compiled for                                               x86_64
 CP2K| Data directory path    /home/kuehne88/work/codex-gxtb-exchange-cache-cp2k
 CP2K| Input file name                                                 input.inp

 GLOBAL| Force Environment number                                              1
 GLOBAL| Basis set file name                                           BASIS_SET
 GLOBAL| Potential file name                                           POTENTIAL
 GLOBAL| MM Potential file name                                     MM_POTENTIAL
 GLOBAL| Coordinate file name                                      __STD_INPUT__
 GLOBAL| Method name                                                        CP2K
 GLOBAL| Project name                              CH4_gxtb_kp_k290_force_stress
 GLOBAL| Run type                                                          DEBUG
 GLOBAL| FFT library                                                       FFTW3
 GLOBAL| Diagonalization library                                       ScaLAPACK
 GLOBAL| Cholesky decomposition library                                ScaLAPACK
 GLOBAL| DGEMM library                                                      BLAS
 GLOBAL| Direct generalized diagonalization requested                          F
 GLOBAL| Orthonormality check for eigenvectors                          DISABLED
 GLOBAL| Matrix multiplication library                                 ScaLAPACK
 GLOBAL| All-to-all communication in single precision                          F
 GLOBAL| FFTs using library dependent lengths                                  F
 GLOBAL| Grid backend                                                       AUTO
 GLOBAL| Global print level                                               MEDIUM
 GLOBAL| MPI I/O enabled                                                       T
 GLOBAL| Total number of message passing processes                             1
 GLOBAL| Number of distributed systems (nodes)                                 1
 GLOBAL| Number of threads for this process                                    4
 GLOBAL| This output is from process                                           0
 GLOBAL| OpenMP stack size per thread (OMP_STACKSIZE)                    default
 GLOBAL| CPU model name                                       AMD EPYC Processor
 GLOBAL| CPUID                                                              1002

 MEMORY| system memory details [Kb]
 MEMORY|                        rank 0           min           max       average
 MEMORY| MemTotal            528104804     528104804     528104804     528104804
 MEMORY| MemFree             388035788     388035788     388035788     388035788
 MEMORY| Buffers                    20            20            20            20
 MEMORY| Cached              126123348     126123348     126123348     126123348
 MEMORY| Slab                  9634080       9634080       9634080       9634080
 MEMORY| SReclaimable          7232580       7232580       7232580       7232580
 MEMORY| MemLikelyFree       521391736     521391736     521391736     521391736


 *** Fundamental physical constants (SI units) ***

 *** Literature: B. J. Mohr and B. N. Taylor,
 ***             CODATA recommended values of the fundamental physical
 ***             constants: 2006, Web Version 5.1
 ***             http://physics.nist.gov/constants

 Speed of light in vacuum [m/s]                             2.99792458000000E+08
 Magnetic constant or permeability of vacuum [N/A**2]       1.25663706143592E-06
 Electric constant or permittivity of vacuum [F/m]          8.85418781762039E-12
 Planck constant (h) [J*s]                                  6.62606896000000E-34
 Planck constant (h-bar) [J*s]                              1.05457162825177E-34
 Elementary charge [C]                                      1.60217648700000E-19
 Electron mass [kg]                                         9.10938215000000E-31
 Electron g factor [ ]                                     -2.00231930436220E+00
 Proton mass [kg]                                           1.67262163700000E-27
 Fine-structure constant                                    7.29735253760000E-03
 Rydberg constant [1/m]                                     1.09737315685270E+07
 Avogadro constant [1/mol]                                  6.02214179000000E+23
 Boltzmann constant [J/K]                                   1.38065040000000E-23
 Atomic mass unit [kg]                                      1.66053878200000E-27
 Bohr radius [m]                                            5.29177208590000E-11

 *** Conversion factors ***

 [u] -> [a.u.]                                              1.82288848426455E+03
 [Angstrom] -> [Bohr] = [a.u.]                              1.88972613288564E+00
 [a.u.] = [Bohr] -> [Angstrom]                              5.29177208590000E-01
 [a.u.] -> [s]                                              2.41888432650478E-17
 [a.u.] -> [fs]                                             2.41888432650478E-02
 [a.u.] -> [J]                                              4.35974393937059E-18
 [a.u.] -> [N]                                              8.23872205491840E-08
 [a.u.] -> [K]                                              3.15774647902944E+05
 [a.u.] -> [kJ/mol]                                         2.62549961709828E+03
 [a.u.] -> [kcal/mol]                                       6.27509468713739E+02
 [a.u.] -> [Pa]                                             2.94210107994716E+13
 [a.u.] -> [bar]                                            2.94210107994716E+08
 [a.u.] -> [atm]                                            2.90362800883016E+08
 [a.u.] -> [eV]                                             2.72113838565563E+01
 [a.u.] -> [Hz]                                             6.57968392072181E+15
 [a.u.] -> [1/cm] (wave numbers)                            2.19474631370540E+05
 [a.u./Bohr**2] -> [1/cm]                                   5.14048714338585E+03
 

 CELL| Volume [angstrom^3]:                                           512.000000
 CELL| Vector a [angstrom]:       8.000     0.000     0.000   |a| =     8.000000
 CELL| Vector b [angstrom]:       0.000     8.000     0.000   |b| =     8.000000
 CELL| Vector c [angstrom]:       0.000     0.000     8.000   |c| =     8.000000
 CELL| Angle (b,c), alpha [degree]:                                    90.000000
 CELL| Angle (a,c), beta  [degree]:                                    90.000000
 CELL| Angle (a,b), gamma [degree]:                                    90.000000
 CELL| Requested initial symmetry:                                         CUBIC
 CELL| Numerically orthorhombic:                                             YES
 CELL| Periodicity                                                           XYZ

 CELL_REF| Volume [angstrom^3]:                                       512.000000
 CELL_REF| Vector a [angstrom     8.000     0.000     0.000   |a| =     8.000000
 CELL_REF| Vector b [angstrom     0.000     8.000     0.000   |b| =     8.000000
 CELL_REF| Vector c [angstrom     0.000     0.000     8.000   |c| =     8.000000
 CELL_REF| Angle (b,c), alpha [degree]:                                90.000000
 CELL_REF| Angle (a,c), beta  [degree]:                                90.000000
 CELL_REF| Angle (a,b), gamma [degree]:                                90.000000
 CELL_REF| Requested initial symmetry:                                     CUBIC
 CELL_REF| Numerically orthorhombic:                                         YES
 CELL_REF| Periodicity                                                       XYZ

 GENERATE|  Preliminary Number of Bonds generated:                             0
 GENERATE|  Achieved consistency in connectivity generation.


                  #####   #####        #     #   #     #       #          
                 #     # #     #      #    ##### #     #   # #####  ####  
                 #     # #           #       #   ###   #       #   #    # 
                 #     #  #####     #        #   #  #  #   #   #   ###### 
                 #   # #       #   #         #   #   # #   #   #   #      
                 #    #  #     #  #          #   #  #  # # #   #    #   # 
                  #### #  #####  #           #   ###   ##  #   #     ###  

                                     g-xTB   
                                 Version 0.0                       
                            Johann V. Pototschnig                  

                tblite provider: SAVE
                tblite source revision: unknown
                g-xTB support: enabled

 xTB| Parameter file                                             xTB1_parameters
 xTB| Basis expansion STO-NG                                                   6
 xTB| Basis expansion STO-NG for Hydrogen                                      4
 xTB| Repulsive pair potential accuracy                               0.1000E-09
 xTB| Repulsive enhancement factor                                      0.000000
 xTB| Halogen interaction potential                                            T
 xTB| Halogen interaction potential cutoff radius                         20.000
 xTB| Nonbonded interactions                                                   F
 xTB| vdW potential type:                                              DFTD3(BJ)
 xTB| D3 Dispersion: Parameter                                         dftd3.dat
 xTB| Huckel constants ks kp kd                        1.850     2.250     2.000
 xTB| Huckel constants ksp k2sh                                  2.080     2.850
 xTB| Mataga-Nishimoto exponent                                            2.000
 xTB| Repulsion potential exponent                                         1.500
 xTB| Coordination number scaling kcn(s) kcn(p) kc     0.006    -0.003    -0.005
 xTB| Electronegativity scaling                                           -0.007
 xTB| Halogen potential scaling kxr kx2                          1.300     0.440
 xTB| SCC mixer:                                                       AUTO
 xTB| tblite accuracy:                                                 1.000E+00
 xTB| tblite SCC mixer damping:                                            0.400
 xTB| tblite SCC mixer iterations:                                           250
 xTB| tblite SCC mixer memory:                                               250
 xTB| tblite SCC mixer solver:                                         GVD
 xTB| tblite SCC mixer omega0:                                         1.000E-02
 xTB| tblite SCC mixer min weight:                                     1.000E+00
 xTB| tblite SCC mixer max weight:                                     1.000E+05
 xTB| tblite SCC mixer weight factor:                                  1.000E-02




 ATOMIC KIND INFORMATION

  1. Atomic kind: C                                     Number of atoms:       1

     Orbital Basis Set                                                 C _STO-6G

       Number of orbital shell sets:                                           2
       Number of orbital shells:                                               2
       Number of primitive Cartesian functions:                               12
       Number of Cartesian basis functions:                                    4
       Number of spherical basis functions:                                    4
       Norm type:                                                              3

       Normalised Cartesian orbitals:

                        Set   Shell   Orbital            Exponent    Coefficient

                          1       1    1s                2.208628      -1.157490
                                                         1.917959       0.886555
                                                         0.497153       0.232010
                                                         0.192182       0.116485
                                                         0.150531      -0.033296
                                                         0.078189       0.019361

                          2       1    2px              24.597336       0.464082
                                                         6.488161       0.691437
                                                         2.226359       0.612655
                                                         0.776897       0.415112
                                                         0.283425       0.113030
                                                         0.098628       0.020433
                          2       1    2py              24.597336       0.464082
                                                         6.488161       0.691437
                                                         2.226359       0.612655
                                                         0.776897       0.415112
                                                         0.283425       0.113030
                                                         0.098628       0.020433
                          2       1    2pz              24.597336       0.464082
                                                         6.488161       0.691437
                                                         2.226359       0.612655
                                                         0.776897       0.415112
                                                         0.283425       0.113030
                                                         0.098628       0.020433

     AE Potential information for                                         Carbon

       Description:                                       Bare Coulomb Potential
                                                             Valence charge only

       Gaussian exponent of the core charge distribution:               3.373250
       Electronic configuration (s p d ...):                       2   2   0   0

  2. Atomic kind: H                                     Number of atoms:       4

     Orbital Basis Set                                                 H _STO-8G

       Number of orbital shell sets:                                           1
       Number of orbital shells:                                               1
       Number of primitive Cartesian functions:                                8
       Number of Cartesian basis functions:                                    1
       Number of spherical basis functions:                                    1
       Norm type:                                                              3

       Normalised Cartesian orbitals:

                        Set   Shell   Orbital            Exponent    Coefficient

                          1       1    1s              337.005012       0.032613
                                                        53.310531       0.058991
                                                        12.208253       0.102844
                                                         3.418827       0.159923
                                                         1.108790       0.193518
                                                         0.478718       0.121328
                                                         0.212137       0.085046
                                                         0.069058       0.011171

     AE Potential information for                                       Hydrogen

       Description:                                       Bare Coulomb Potential
                                                              Full atomic charge

       Gaussian exponent of the core charge distribution:              12.500000
       Electronic configuration (s p d ...):                       1   0   0   0


 MOLECULE KIND INFORMATION


 All atoms are their own molecule, skipping detailed information


 TOTAL NUMBERS AND MAXIMUM NUMBERS

  Total number of            - Atomic kinds:                                   2
                             - Atoms:                                          5
                             - Shell sets:                                     6
                             - Shells:                                         6
                             - Primitive Cartesian functions:                 44
                             - Cartesian basis functions:                      8
                             - Spherical basis functions:                      8

  Maximum angular momentum of the orbital basis functions:                     1


 MODULE QUICKSTEP: ATOMIC COORDINATES IN ANGSTROM

   Atom Kind Element         X             Y             Z       Z(eff)     Mass
      1    1 C     6      4.000000      4.000000      4.000000   4.0000  12.0107
      2    2 H     1      4.692820      4.692820      4.692820   1.0000   1.0079
      3    2 H     1      4.692820      3.307180      3.307180   1.0000   1.0079
      4    2 H     1      3.307180      4.692820      3.307180   1.0000   1.0079
      5    2 H     1      3.307180      3.307180      4.692820   1.0000   1.0079



 SCF PARAMETERS         Density guess:                                     MOPAC
                        --------------------------------------------------------
                        max_scf:                                             300
                        max_scf_history:                                       0
                        max_diis:                                              4
                        --------------------------------------------------------
                        eps_scf:                                        1.00E-10
                        eps_scf_history:                                0.00E+00
                        eps_diis:                                       1.00E-01
                        eps_eigval:                                     1.00E-05
                        --------------------------------------------------------
                        level_shift [a.u.]:                             0.000000
                        added MOs                                         4    0
                        --------------------------------------------------------
                        Mixing method:                           DIRECT_P_MIXING
                        --------------------------------------------------------
                        Smear method:                                FERMI_DIRAC
                        Electronic temperature [K]:                        300.0
                        Electronic temperature [a.u.]:                  9.50E-04
                        Accuracy threshold:                             1.00E-06
                        --------------------------------------------------------
                        No outer SCF

 PW_GRID| Information for grid number                                          1
 PW_GRID| Cutoff [a.u.]                                                      1.0
 PW_GRID| spherical cutoff:                                                   NO
 PW_GRID|   Bounds   1             -4       3                Points:           8
 PW_GRID|   Bounds   2             -4       3                Points:           8
 PW_GRID|   Bounds   3             -4       3                Points:           8
 PW_GRID| Volume element (a.u.^3)   6.748         Volume (a.u.^3)      3455.1473
 PW_GRID| Grid span                                                    FULLSPACE

 POISSON| Solver                                                        PERIODIC
 POISSON| Periodicity                                                        XYZ

 RS_GRID| Information for grid number                                          1
 RS_GRID|   Bounds   1             -4       3                Points:           8
 RS_GRID|   Bounds   2             -4       3                Points:           8
 RS_GRID|   Bounds   3             -4       3                Points:           8

 *******************************************************************************
 **                      Special K-Point Generation by K290                   **
 *******************************************************************************
 KPSYM| NUMBER OF ATOMS (STRUCT):     5
 KPSYM|          K   TYPE              X(K)
 KPSYM|          1     1   7.55890   7.55890   7.55890
 KPSYM|          2     2   8.86815   8.86815   8.86815
 KPSYM|          3     2   8.86815   6.24966   6.24966
 KPSYM|          4     2   6.24966   8.86815   6.24966
 KPSYM|          5     2   6.24966   6.24966   8.86815

 KPSYM| THE CRYSTAL SYSTEM IS CUBIC WITH 24 OPERATIONS:
    1            2[ 10 0]     2[ 01 0]     2[ 00 1]     3[-1-1-1]
    3[ 11-1]     3[-11 1]     3[ 1-11]     3[ 11 1]     3[-11-1] 
    3[-1-11]     3[ 1-1-1]   -2[-11 0]    -4[ 00 1]    -4[ 00-1] 
   -2[ 11 0]    -2[ 0-11]    -2[ 01 1]    -4[ 10 0]    -4[-10 0] 
   -2[-10 1]    -4[ 0-10]    -2[ 10 1]    -4[ 01 0] 
 KPSYM| THE SPACE GROUP OF THE CRYSTAL IS SYMMORPHIC
 KPSYM| THE POINT GROUP OF THE CRYSTAL IS  <4>3m(td)   [INDEX=31]
 KPSYM| NUMBER OF PRIMITIVE CELL:                               1

 KPSYM| ALTHOUGH THE POINT GROUP OF THE CRYSTAL DOES NOT
 KPSYM| CONTAIN INVERSION, THE SPECIAL POINT GENERATION ALGORITHM
 KPSYM| WILL CONSIDER IT AS A SYMMETRY OPERATION

 KPSYM| CRYSTALLOGRAPHIC DATA:
    A1  15.11781   0.00000   0.00000          B1   0.06615  -0.00000   0.00000
    A2   0.00000  15.11781   0.00000          B2  -0.00000   0.06615  -0.00000
    A3   0.00000   0.00000  15.11781          B3   0.00000  -0.00000   0.06615

 KPSYM| GROUP-THEORETICAL INFORMATION:
 KPSYM|    POINT GROUP OF THE PRIMITIVE LATTICE: CUBIC        SYSTEM
 KPSYM|    SYMMORPHIC GROUP
 KPSYM|    NO INVERSION SYMMETRY
 KPSYM|    TOTAL NUMBER OF ELEMENTS IN THE POINT GROUP: 24
 KPSYM|    TO SUM UP: (5  1  1  0 24 31)

 KPSYM|    LIST OF THE ROTATIONS:
          1   2   3   4   5   6   7   8   9  10  11  12
         37  38  39  40  41  42  43  44  45  46  47  48

 KPSYM|    ATOM TRANSFORMATION TABLE (MARADUDIN,VOSKO):
    R  AT->AT    R  AT->AT    R  AT->AT    R  AT->AT    R  AT->AT
    1 [Identity]
    2   1   1    2   2   3    2   3   2    2   4   5    2   5   4
    3   1   1    3   2   4    3   3   5    3   4   2    3   5   3
    4   1   1    4   2   5    4   3   4    4   4   3    4   5   2
    5   1   1    5   2   2    5   3   5    5   4   3    5   5   4
    6   1   1    6   2   3    6   3   4    6   4   2    6   5   5
    7   1   1    7   2   4    7   3   3    7   4   5    7   5   2
    8   1   1    8   2   5    8   3   2    8   4   4    8   5   3
    9   1   1    9   2   2    9   3   4    9   4   5    9   5   3
   10   1   1   10   2   3   10   3   5   10   4   4   10   5   2
   11   1   1   11   2   4   11   3   2   11   4   3   11   5   5
   12   1   1   12   2   5   12   3   3   12   4   2   12   5   4
   37   1   1   37   2   2   37   3   4   37   4   3   37   5   5
   38   1   1   38   2   3   38   3   5   38   4   2   38   5   4
   39   1   1   39   2   4   39   3   2   39   4   5   39   5   3
   40   1   1   40   2   5   40   3   3   40   4   4   40   5   2
   41   1   1   41   2   2   41   3   3   41   4   5   41   5   4
   42   1   1   42   2   3   42   3   2   42   4   4   42   5   5
   43   1   1   43   2   4   43   3   5   43   4   3   43   5   2
   44   1   1   44   2   5   44   3   4   44   4   2   44   5   3
   45   1   1   45   2   2   45   3   5   45   4   4   45   5   3
   46   1   1   46   2   3   46   3   4   46   4   5   46   5   2
   47   1   1   47   2   4   47   3   3   47   4   2   47   5   5
   48   1   1   48   2   5   48   3   2   48   4   3   48   5   4

 KPSYM|    LIST OF THE 3 X 3 ROTATION MATRICES:
      1 ( 1:  1        )       1.000000      0.000000      0.000000
                               0.000000      1.000000      0.000000
                               0.000000      0.000000      1.000000
      2 ( 2:  2[ 10 0] )       1.000000      0.000000      0.000000
                               0.000000     -1.000000      0.000000
                               0.000000      0.000000     -1.000000
      3 ( 3:  2[ 01 0] )      -1.000000      0.000000      0.000000
                               0.000000      1.000000      0.000000
                               0.000000      0.000000     -1.000000
      4 ( 4:  2[ 00 1] )      -1.000000      0.000000      0.000000
                               0.000000     -1.000000      0.000000
                               0.000000      0.000000      1.000000
      5 ( 5:  3[-1-1-1])       0.000000      1.000000      0.000000
                               0.000000      0.000000      1.000000
                               1.000000      0.000000      0.000000
      6 ( 6:  3[ 11-1] )       0.000000      1.000000      0.000000
                               0.000000      0.000000     -1.000000
                              -1.000000      0.000000      0.000000
      7 ( 7:  3[-11 1] )       0.000000     -1.000000      0.000000
                               0.000000      0.000000      1.000000
                              -1.000000      0.000000      0.000000
      8 ( 8:  3[ 1-11] )       0.000000     -1.000000      0.000000
                               0.000000      0.000000     -1.000000
                               1.000000      0.000000      0.000000
      9 ( 9:  3[ 11 1] )       0.000000      0.000000      1.000000
                               1.000000      0.000000      0.000000
                               0.000000      1.000000      0.000000
     10 (10:  3[-11-1] )       0.000000      0.000000      1.000000
                              -1.000000      0.000000      0.000000
                               0.000000     -1.000000      0.000000
     11 (11:  3[-1-11] )       0.000000      0.000000     -1.000000
                               1.000000      0.000000      0.000000
                               0.000000     -1.000000      0.000000
     12 (12:  3[ 1-1-1])       0.000000      0.000000     -1.000000
                              -1.000000      0.000000      0.000000
                               0.000000      1.000000      0.000000
     13 (37: -2[-11 0] )      -0.000000      1.000000     -0.000000
                               1.000000     -0.000000     -0.000000
                              -0.000000     -0.000000      1.000000
     14 (38: -4[ 00 1] )      -0.000000      1.000000     -0.000000
                              -1.000000     -0.000000     -0.000000
                              -0.000000     -0.000000     -1.000000
     15 (39: -4[ 00-1] )      -0.000000     -1.000000     -0.000000
                               1.000000     -0.000000     -0.000000
                              -0.000000     -0.000000     -1.000000
     16 (40: -2[ 11 0] )      -0.000000     -1.000000     -0.000000
                              -1.000000     -0.000000     -0.000000
                              -0.000000     -0.000000      1.000000
     17 (41: -2[ 0-11] )       1.000000     -0.000000     -0.000000
                              -0.000000     -0.000000      1.000000
                              -0.000000      1.000000     -0.000000
     18 (42: -2[ 01 1] )       1.000000     -0.000000     -0.000000
                              -0.000000     -0.000000     -1.000000
                              -0.000000     -1.000000     -0.000000
     19 (43: -4[ 10 0] )      -1.000000     -0.000000     -0.000000
                              -0.000000     -0.000000      1.000000
                              -0.000000     -1.000000     -0.000000
     20 (44: -4[-10 0] )      -1.000000     -0.000000     -0.000000
                              -0.000000     -0.000000     -1.000000
                              -0.000000      1.000000     -0.000000
     21 (45: -2[-10 1] )      -0.000000     -0.000000      1.000000
                              -0.000000      1.000000     -0.000000
                               1.000000     -0.000000     -0.000000
     22 (46: -4[ 0-10] )      -0.000000     -0.000000      1.000000
                              -0.000000     -1.000000     -0.000000
                              -1.000000     -0.000000     -0.000000
     23 (47: -2[ 10 1] )      -0.000000     -0.000000     -1.000000
                              -0.000000      1.000000     -0.000000
                              -1.000000     -0.000000     -0.000000
     24 (48: -4[ 01 0] )      -0.000000     -0.000000     -1.000000
                              -0.000000     -1.000000     -0.000000
                               1.000000     -0.000000     -0.000000

 KPSYM| THE POINT GROUP OF THE CRYSTAL IS THE FULL CUBIC GROUP
 KPSYM| THE SPACE GROUP OF THE CRYSTAL IS SYMMORPHIC
 KPSYM| THE POINT GROUP OF THE CRYSTAL IS  m3m(oh)     [INDEX=32]
 KPSYM| NUMBER OF PRIMITIVE CELL:                               1
 KPSYM| THE POINT GROUP OF THE CRYSTAL CONTAINS THE INVERSION


 ******************* GENERATION OF SPECIAL POINTS *************************
 KPSYM| MONKHORST-PACK PARAMETERS (GENERALIZED) IQ1,IQ2,IQ3:
     2    2    2
 KPSYM| CONSTANT VECTOR SHIFT (MACDONALD) OF THIS MESH:
    0.00000   0.00000   0.00000
 KPSYM| SYMMETRIZATION SWITCH:   1 (SYMMETRIZATION OF MONKHORST-PACK MESH)
 KPSYM| The 1st Brillouin zone is confined by (at most)  3 planes
 KPSYM| as defined by the +/- halves of the vectors:
 KPSYM|     1.0000   -0.0000    0.0000
 KPSYM|    -0.0000    1.0000   -0.0000
 KPSYM|     0.0000   -0.0000    1.0000
 KPSYM|
 KPSYM| THE WAVEVECTOR MESH CONTAINS     8 POINTS
 KPSYM| THE POINTS ARE:
     1    0.2500    0.2500    0.2500     2    0.2500   -0.2500   -0.2500
     3   -0.2500    0.2500   -0.2500     4   -0.2500   -0.2500    0.2500
     5   -0.2500   -0.2500   -0.2500     6   -0.2500    0.2500    0.2500
     7    0.2500   -0.2500    0.2500     8    0.2500    0.2500   -0.2500


 KPSYM|    CROSS TABLE RELATING MESH POINTS WITH SPECIAL POINTS:
    IK -> SK    IK -> SK    IK -> SK    IK -> SK    IK -> SK
     1     1     2     1     3     1     4     1     5     1
     6     1     7     1     8     1

 KPSYM|     1 SPECIAL POINTS GENERATED
        WAVEVECTOR K            WEIGHT    UNFOLDING ROTATIONS
     1  0.2500  0.2500  0.2500       8     1 -1  2 -2  3 -3  4 -4
                        TOTAL:       8
 *******************************************************************************
 **                              Finished K290                                **
 *******************************************************************************

 Crystal Symmetry Information
       International Symbol:                                               P-43m
       Point Group Symbol:                                                  -43m
       Schoenflies Symbol:                                                  Td^1
       Number of Symmetry Operations:                                         24

 K-point Symmetry Information
       Number of Special K-points:                                             1
                   Wavevector Basis                                       Weight
          1  -0.25000  -0.25000  -0.25000                                      8

       K-point Mesh:                                               2     2     2
                   Wavevector Basis                   Special Points    Rotation
          1  -0.25000  -0.25000  -0.25000              1           1           1
          2  -0.25000  -0.25000   0.25000              1           1          -4
          3  -0.25000   0.25000  -0.25000              1           1          -3
          4  -0.25000   0.25000   0.25000              1           1           2
          5   0.25000  -0.25000  -0.25000              1           1          -2
          6   0.25000  -0.25000   0.25000              1           1           3
          7   0.25000   0.25000  -0.25000              1           1           4
          8   0.25000   0.25000   0.25000              1           1          -1

       Atom Transformation Table
          Rot=    1     1    2    3    4    5
          Rot=    2     1    3    2    5    4
          Rot=    3     1    4    5    2    3
          Rot=    4     1    5    4    3    2
          Rot=    5     1    2    5    3    4
          Rot=    6     1    3    4    2    5
          Rot=    7     1    4    3    5    2
          Rot=    8     1    5    2    4    3
          Rot=    9     1    2    4    5    3
          Rot=   10     1    3    5    4    2
          Rot=   11     1    4    2    3    5
          Rot=   12     1    5    3    2    4
          Rot=   37     1    2    4    3    5
          Rot=   38     1    3    5    2    4
          Rot=   39     1    4    2    5    3
          Rot=   40     1    5    3    4    2
          Rot=   41     1    2    3    5    4
          Rot=   42     1    3    2    4    5
          Rot=   43     1    4    5    3    2
          Rot=   44     1    5    4    2    3
          Rot=   45     1    2    5    4    3
          Rot=   46     1    3    4    5    2
          Rot=   47     1    4    3    2    5
          Rot=   48     1    5    2    3    4

 *******************************************************************************
                                    Kpoints
 *******************************************************************************
 BRILLOUIN| K-point scheme                                        Monkhorst-Pack
 BRILLOUIN| K-Point grid                                             2    2    2
 BRILLOUIN| K-point symmetry accuracy                               0.100000E-07
 BRILLOUIN| K-Point point group symmetrization                                ON
 BRILLOUIN| Symmetry backend                                               K290
 BRILLOUIN| Symmetry reduction method                                      K290
 BRILLOUIN| Wavefunction type                                            COMPLEX
 BRILLOUIN| List of Kpoints [2 Pi/Bohr]                                        1
 BRILLOUIN| Number           Weight            X              Y              Z
 BRILLOUIN|     1           1.00000       -0.25000       -0.25000       -0.25000
 *******************************************************************************

 *******************************************************************************
 **                      Special K-Point Generation by K290                   **
 *******************************************************************************
 KPSYM| NUMBER OF ATOMS (STRUCT):     5
 KPSYM|          K   TYPE              X(K)
 KPSYM|          1     1   7.55890   7.55890   7.55890
 KPSYM|          2     2   8.86815   8.86815   8.86815
 KPSYM|          3     2   8.86815   6.24966   6.24966
 KPSYM|          4     2   6.24966   8.86815   6.24966
 KPSYM|          5     2   6.24966   6.24966   8.86815

 KPSYM| THE CRYSTAL SYSTEM IS CUBIC WITH 24 OPERATIONS:
    1            2[ 10 0]     2[ 01 0]     2[ 00 1]     3[-1-1-1]
    3[ 11-1]     3[-11 1]     3[ 1-11]     3[ 11 1]     3[-11-1] 
    3[-1-11]     3[ 1-1-1]   -2[-11 0]    -4[ 00 1]    -4[ 00-1] 
   -2[ 11 0]    -2[ 0-11]    -2[ 01 1]    -4[ 10 0]    -4[-10 0] 
   -2[-10 1]    -4[ 0-10]    -2[ 10 1]    -4[ 01 0] 
 KPSYM| THE SPACE GROUP OF THE CRYSTAL IS SYMMORPHIC
 KPSYM| THE POINT GROUP OF THE CRYSTAL IS  <4>3m(td)   [INDEX=31]
 KPSYM| NUMBER OF PRIMITIVE CELL:                               1

 KPSYM| ALTHOUGH THE POINT GROUP OF THE CRYSTAL DOES NOT
 KPSYM| CONTAIN INVERSION, THE SPECIAL POINT GENERATION ALGORITHM
 KPSYM| WILL CONSIDER IT AS A SYMMETRY OPERATION

 KPSYM| CRYSTALLOGRAPHIC DATA:
    A1  15.11781   0.00000   0.00000          B1   0.06615  -0.00000   0.00000
    A2   0.00000  15.11781   0.00000          B2  -0.00000   0.06615  -0.00000
    A3   0.00000   0.00000  15.11781          B3   0.00000  -0.00000   0.06615

 KPSYM| GROUP-THEORETICAL INFORMATION:
 KPSYM|    POINT GROUP OF THE PRIMITIVE LATTICE: CUBIC        SYSTEM
 KPSYM|    SYMMORPHIC GROUP
 KPSYM|    NO INVERSION SYMMETRY
 KPSYM|    TOTAL NUMBER OF ELEMENTS IN THE POINT GROUP: 24
 KPSYM|    TO SUM UP: (5  1  1  0 24 31)

 KPSYM|    LIST OF THE ROTATIONS:
          1   2   3   4   5   6   7   8   9  10  11  12
         37  38  39  40  41  42  43  44  45  46  47  48

 KPSYM|    ATOM TRANSFORMATION TABLE (MARADUDIN,VOSKO):
    R  AT->AT    R  AT->AT    R  AT->AT    R  AT->AT    R  AT->AT
    1 [Identity]
    2   1   1    2   2   3    2   3   2    2   4   5    2   5   4
    3   1   1    3   2   4    3   3   5    3   4   2    3   5   3
    4   1   1    4   2   5    4   3   4    4   4   3    4   5   2
    5   1   1    5   2   2    5   3   5    5   4   3    5   5   4
    6   1   1    6   2   3    6   3   4    6   4   2    6   5   5
    7   1   1    7   2   4    7   3   3    7   4   5    7   5   2
    8   1   1    8   2   5    8   3   2    8   4   4    8   5   3
    9   1   1    9   2   2    9   3   4    9   4   5    9   5   3
   10   1   1   10   2   3   10   3   5   10   4   4   10   5   2
   11   1   1   11   2   4   11   3   2   11   4   3   11   5   5
   12   1   1   12   2   5   12   3   3   12   4   2   12   5   4
   37   1   1   37   2   2   37   3   4   37   4   3   37   5   5
   38   1   1   38   2   3   38   3   5   38   4   2   38   5   4
   39   1   1   39   2   4   39   3   2   39   4   5   39   5   3
   40   1   1   40   2   5   40   3   3   40   4   4   40   5   2
   41   1   1   41   2   2   41   3   3   41   4   5   41   5   4
   42   1   1   42   2   3   42   3   2   42   4   4   42   5   5
   43   1   1   43   2   4   43   3   5   43   4   3   43   5   2
   44   1   1   44   2   5   44   3   4   44   4   2   44   5   3
   45   1   1   45   2   2   45   3   5   45   4   4   45   5   3
   46   1   1   46   2   3   46   3   4   46   4   5   46   5   2
   47   1   1   47   2   4   47   3   3   47   4   2   47   5   5
   48   1   1   48   2   5   48   3   2   48   4   3   48   5   4

 KPSYM|    LIST OF THE 3 X 3 ROTATION MATRICES:
      1 ( 1:  1        )       1.000000      0.000000      0.000000
                               0.000000      1.000000      0.000000
                               0.000000      0.000000      1.000000
      2 ( 2:  2[ 10 0] )       1.000000      0.000000      0.000000
                               0.000000     -1.000000      0.000000
                               0.000000      0.000000     -1.000000
      3 ( 3:  2[ 01 0] )      -1.000000      0.000000      0.000000
                               0.000000      1.000000      0.000000
                               0.000000      0.000000     -1.000000
      4 ( 4:  2[ 00 1] )      -1.000000      0.000000      0.000000
                               0.000000     -1.000000      0.000000
                               0.000000      0.000000      1.000000
      5 ( 5:  3[-1-1-1])       0.000000      1.000000      0.000000
                               0.000000      0.000000      1.000000
                               1.000000      0.000000      0.000000
      6 ( 6:  3[ 11-1] )       0.000000      1.000000      0.000000
                               0.000000      0.000000     -1.000000
                              -1.000000      0.000000      0.000000
      7 ( 7:  3[-11 1] )       0.000000     -1.000000      0.000000
                               0.000000      0.000000      1.000000
                              -1.000000      0.000000      0.000000
      8 ( 8:  3[ 1-11] )       0.000000     -1.000000      0.000000
                               0.000000      0.000000     -1.000000
                               1.000000      0.000000      0.000000
      9 ( 9:  3[ 11 1] )       0.000000      0.000000      1.000000
                               1.000000      0.000000      0.000000
                               0.000000      1.000000      0.000000
     10 (10:  3[-11-1] )       0.000000      0.000000      1.000000
                              -1.000000      0.000000      0.000000
                               0.000000     -1.000000      0.000000
     11 (11:  3[-1-11] )       0.000000      0.000000     -1.000000
                               1.000000      0.000000      0.000000
                               0.000000     -1.000000      0.000000
     12 (12:  3[ 1-1-1])       0.000000      0.000000     -1.000000
                              -1.000000      0.000000      0.000000
                               0.000000      1.000000      0.000000
     13 (37: -2[-11 0] )      -0.000000      1.000000     -0.000000
                               1.000000     -0.000000     -0.000000
                              -0.000000     -0.000000      1.000000
     14 (38: -4[ 00 1] )      -0.000000      1.000000     -0.000000
                              -1.000000     -0.000000     -0.000000
                              -0.000000     -0.000000     -1.000000
     15 (39: -4[ 00-1] )      -0.000000     -1.000000     -0.000000
                               1.000000     -0.000000     -0.000000
                              -0.000000     -0.000000     -1.000000
     16 (40: -2[ 11 0] )      -0.000000     -1.000000     -0.000000
                              -1.000000     -0.000000     -0.000000
                              -0.000000     -0.000000      1.000000
     17 (41: -2[ 0-11] )       1.000000     -0.000000     -0.000000
                              -0.000000     -0.000000      1.000000
                              -0.000000      1.000000     -0.000000
     18 (42: -2[ 01 1] )       1.000000     -0.000000     -0.000000
                              -0.000000     -0.000000     -1.000000
                              -0.000000     -1.000000     -0.000000
     19 (43: -4[ 10 0] )      -1.000000     -0.000000     -0.000000
                              -0.000000     -0.000000      1.000000
                              -0.000000     -1.000000     -0.000000
     20 (44: -4[-10 0] )      -1.000000     -0.000000     -0.000000
                              -0.000000     -0.000000     -1.000000
                              -0.000000      1.000000     -0.000000
     21 (45: -2[-10 1] )      -0.000000     -0.000000      1.000000
                              -0.000000      1.000000     -0.000000
                               1.000000     -0.000000     -0.000000
     22 (46: -4[ 0-10] )      -0.000000     -0.000000      1.000000
                              -0.000000     -1.000000     -0.000000
                              -1.000000     -0.000000     -0.000000
     23 (47: -2[ 10 1] )      -0.000000     -0.000000     -1.000000
                              -0.000000      1.000000     -0.000000
                              -1.000000     -0.000000     -0.000000
     24 (48: -4[ 01 0] )      -0.000000     -0.000000     -1.000000
                              -0.000000     -1.000000     -0.000000
                               1.000000     -0.000000     -0.000000

 KPSYM| THE POINT GROUP OF THE CRYSTAL IS THE FULL CUBIC GROUP
 KPSYM| THE SPACE GROUP OF THE CRYSTAL IS SYMMORPHIC
 KPSYM| THE POINT GROUP OF THE CRYSTAL IS  m3m(oh)     [INDEX=32]
 KPSYM| NUMBER OF PRIMITIVE CELL:                               1
 KPSYM| THE POINT GROUP OF THE CRYSTAL CONTAINS THE INVERSION


 ******************* GENERATION OF SPECIAL POINTS *************************
 KPSYM| MONKHORST-PACK PARAMETERS (GENERALIZED) IQ1,IQ2,IQ3:
     2    2    2
 KPSYM| CONSTANT VECTOR SHIFT (MACDONALD) OF THIS MESH:
    0.00000   0.00000   0.00000
 KPSYM| SYMMETRIZATION SWITCH:   1 (SYMMETRIZATION OF MONKHORST-PACK MESH)
 KPSYM| The 1st Brillouin zone is confined by (at most)  3 planes
 KPSYM| as defined by the +/- halves of the vectors:
 KPSYM|     1.0000   -0.0000    0.0000
 KPSYM|    -0.0000    1.0000   -0.0000
 KPSYM|     0.0000   -0.0000    1.0000
 KPSYM|
 KPSYM| THE WAVEVECTOR MESH CONTAINS     8 POINTS
 KPSYM| THE POINTS ARE:
     1    0.2500    0.2500    0.2500     2    0.2500   -0.2500   -0.2500
     3   -0.2500    0.2500   -0.2500     4   -0.2500   -0.2500    0.2500
     5   -0.2500   -0.2500   -0.2500     6   -0.2500    0.2500    0.2500
     7    0.2500   -0.2500    0.2500     8    0.2500    0.2500   -0.2500


 KPSYM|    CROSS TABLE RELATING MESH POINTS WITH SPECIAL POINTS:
    IK -> SK    IK -> SK    IK -> SK    IK -> SK    IK -> SK
     1     1     2     1     3     1     4     1     5     1
     6     1     7     1     8     1

 KPSYM|     1 SPECIAL POINTS GENERATED
        WAVEVECTOR K            WEIGHT    UNFOLDING ROTATIONS
     1  0.2500  0.2500  0.2500       8     1 -1  2 -2  3 -3  4 -4
                        TOTAL:       8
 *******************************************************************************
 **                              Finished K290                                **
 *******************************************************************************

 Crystal Symmetry Information
       International Symbol:                                               P-43m
       Point Group Symbol:                                                  -43m
       Schoenflies Symbol:                                                  Td^1
       Number of Symmetry Operations:                                         24

 K-point Symmetry Information
       Number of Special K-points:                                             1
                   Wavevector Basis                                       Weight
          1  -0.25000  -0.25000  -0.25000                                      8

       K-point Mesh:                                               2     2     2
                   Wavevector Basis                   Special Points    Rotation
          1  -0.25000  -0.25000  -0.25000              1           1           1
          2  -0.25000  -0.25000   0.25000              1           1          -4
          3  -0.25000   0.25000  -0.25000              1           1          -3
          4  -0.25000   0.25000   0.25000              1           1           2
          5   0.25000  -0.25000  -0.25000              1           1          -2
          6   0.25000  -0.25000   0.25000              1           1           3
          7   0.25000   0.25000  -0.25000              1           1           4
          8   0.25000   0.25000   0.25000              1           1          -1

       Atom Transformation Table
          Rot=    1     1    2    3    4    5
          Rot=    2     1    3    2    5    4
          Rot=    3     1    4    5    2    3
          Rot=    4     1    5    4    3    2
          Rot=    5     1    2    5    3    4
          Rot=    6     1    3    4    2    5
          Rot=    7     1    4    3    5    2
          Rot=    8     1    5    2    4    3
          Rot=    9     1    2    4    5    3
          Rot=   10     1    3    5    4    2
          Rot=   11     1    4    2    3    5
          Rot=   12     1    5    3    2    4
          Rot=   37     1    2    4    3    5
          Rot=   38     1    3    5    2    4
          Rot=   39     1    4    2    5    3
          Rot=   40     1    5    3    4    2
          Rot=   41     1    2    3    5    4
          Rot=   42     1    3    2    4    5
          Rot=   43     1    4    5    3    2
          Rot=   44     1    5    4    2    3
          Rot=   45     1    2    5    4    3
          Rot=   46     1    3    4    5    2
          Rot=   47     1    4    3    2    5
          Rot=   48     1    5    2    3    4

 Extrapolation method: initial_guess

 Number of electrons:                                                          8
 Number of occupied orbitals:                                                  4
 Number of molecular orbitals:                                                 8

 Number of orbital functions:                                                  8
 Number of independent orbital functions:                                      8


 SCF WAVEFUNCTION OPTIMIZATION

  Step     Update method      Time    Convergence         Total energy    Change
  ------------------------------------------------------------------------------
     1 GXTB-Raw    0.10E+01    0.1     0.82979700       -40.4488101775 -4.04E+01
     2 GXTB-Simple 0.20E+00    0.1     0.04788247       -40.4610431014 -1.22E-02
     3 GXTB-Simple 0.20E+00    0.1     0.03337886       -40.4671918126 -6.15E-03
     4 GXTB-FDIIS  0.10E+01    0.1     0.05524366       -40.4725636158 -5.37E-03
     5 GXTB-FDIIS  0.10E+01    0.1     0.03381046       -40.4737574771 -1.19E-03
     6 GXTB-FDIIS  0.10E+01    0.1     0.00193792       -40.4737570582  4.19E-07
     7 GXTB-FDIIS  0.10E+01    0.1     0.00101935       -40.4737581571 -1.10E-06
     8 GXTB-FDIIS  0.10E+01    0.1     0.00003683       -40.4737581591 -1.98E-09
     9 GXTB-FDIIS  0.10E+01    0.1     0.00000783       -40.4737581592 -6.37E-11
    10 GXTB-FDIIS  0.10E+01    0.1     0.00000006       -40.4737581592 -7.11E-15
    11 GXTB-FDIIS  0.10E+01    0.1     2.2742E-11       -40.4737581592  0.00E+00

  *** SCF run converged in    11 steps ***


  Core Hamiltonian energy:                                     -3.07154157742920
  Repulsive potential energy:                                   0.37448426636220
  Electrostatic energy:                                         0.01774355862438
  Self-consistent dispersion energy:                           -0.00112258111393
  Non-self consistent dispersion energy:                        0.00003895111946
  Correction for halogen bonding:                               0.00000000000000
  Electronic entropic energy:                                  -0.00000000000000
  Fermi energy:                                                -0.21273198635222

  Total energy:                                               -40.47375815918123
  Total energy (extrapolated to T->0):                        -40.47375815918123


 MULLIKEN POPULATION ANALYSIS

  # Atom   Element   Kind        Atomic population                    Net charge
       1     C          1                 4.286001                     -0.286001
       2     H          2                 0.928500                      0.071500
       3     H          2                 0.928500                      0.071500
       4     H          2                 0.928500                      0.071500
       5     H          2                 0.928500                      0.071500
 # Total charge                           8.000000                     -0.000000


 ENERGY| Total FORCE_EVAL ( QS ) energy [hartree]            -40.473758159181230

 *******************************************************************************
 **                      Special K-Point Generation by K290                   **
 *******************************************************************************
 KPSYM| NUMBER OF ATOMS (STRUCT):     5
 KPSYM|          K   TYPE              X(K)
 KPSYM|          1     1   7.55895   7.55890   7.55890
 KPSYM|          2     2   8.86820   8.86815   8.86815
 KPSYM|          3     2   8.86820   6.24966   6.24966
 KPSYM|          4     2   6.24971   8.86815   6.24966
 KPSYM|          5     2   6.24971   6.24966   8.86815

 KPSYM| THE CRYSTAL SYSTEM IS TETRAGONAL WITH  8 OPERATIONS:
    1            2[ 10 0]     2[ 01 0]     2[ 00 1]    -2[ 0-11] 
   -2[ 01 1]    -4[ 10 0]    -4[-10 0] 
 KPSYM| THE SPACE GROUP OF THE CRYSTAL IS SYMMORPHIC
 KPSYM| THE POINT GROUP OF THE CRYSTAL IS  mmm(d2h)    [INDEX=27]
 KPSYM| NUMBER OF PRIMITIVE CELL:                               1

 KPSYM| ALTHOUGH THE POINT GROUP OF THE CRYSTAL DOES NOT
 KPSYM| CONTAIN INVERSION, THE SPECIAL POINT GENERATION ALGORITHM
 KPSYM| WILL CONSIDER IT AS A SYMMETRY OPERATION

 KPSYM| CRYSTALLOGRAPHIC DATA:
    A1  15.11791   0.00000   0.00000          B1   0.06615  -0.00000   0.00000
    A2   0.00000  15.11781   0.00000          B2  -0.00000   0.06615  -0.00000
    A3   0.00000   0.00000  15.11781          B3   0.00000  -0.00000   0.06615

 KPSYM| GROUP-THEORETICAL INFORMATION:
 KPSYM|    POINT GROUP OF THE PRIMITIVE LATTICE: TETRAGONAL   SYSTEM
 KPSYM|    SYMMORPHIC GROUP
 KPSYM|    NO INVERSION SYMMETRY
 KPSYM|    TOTAL NUMBER OF ELEMENTS IN THE POINT GROUP:  8
 KPSYM|    TO SUM UP: (4  1  1  0  8 27)

 KPSYM|    LIST OF THE ROTATIONS:
          1   2   3   4  41  42  43  44

 KPSYM|    ATOM TRANSFORMATION TABLE (MARADUDIN,VOSKO):
    R  AT->AT    R  AT->AT    R  AT->AT    R  AT->AT    R  AT->AT
    1 [Identity]
    2   1   1    2   2   3    2   3   2    2   4   5    2   5   4
    3   1   1    3   2   4    3   3   5    3   4   2    3   5   3
    4   1   1    4   2   5    4   3   4    4   4   3    4   5   2
   41   1   1   41   2   2   41   3   3   41   4   5   41   5   4
   42   1   1   42   2   3   42   3   2   42   4   4   42   5   5
   43   1   1   43   2   4   43   3   5   43   4   3   43   5   2
   44   1   1   44   2   5   44   3   4   44   4   2   44   5   3

 KPSYM|    LIST OF THE 3 X 3 ROTATION MATRICES:
      1 ( 1:  1        )       1.000000      0.000000      0.000000
                               0.000000      1.000000      0.000000
                               0.000000      0.000000      1.000000
      2 ( 2:  2[ 10 0] )       1.000000      0.000000      0.000000
                               0.000000     -1.000000      0.000000
                               0.000000      0.000000     -1.000000
      3 ( 3:  2[ 01 0] )      -1.000000      0.000000      0.000000
                               0.000000      1.000000      0.000000
                               0.000000      0.000000     -1.000000
      4 ( 4:  2[ 00 1] )      -1.000000      0.000000      0.000000
                               0.000000     -1.000000      0.000000
                               0.000000      0.000000      1.000000
      5 (41: -2[ 0-11] )       1.000000     -0.000000     -0.000000
                              -0.000000     -0.000000      1.000000
                              -0.000000      1.000000     -0.000000
      6 (42: -2[ 01 1] )       1.000000     -0.000000     -0.000000
                              -0.000000     -0.000000     -1.000000
                              -0.000000     -1.000000     -0.000000
      7 (43: -4[ 10 0] )      -1.000000     -0.000000     -0.000000
                              -0.000000     -0.000000      1.000000
                              -0.000000     -1.000000     -0.000000
      8 (44: -4[-10 0] )      -1.000000     -0.000000     -0.000000
                              -0.000000     -0.000000     -1.000000
                              -0.000000      1.000000     -0.000000

 KPSYM| THE CRYSTAL SYSTEM IS TETRAGONAL WITH 16 OPERATIONS:
    1            2[ 10 0]     2[ 01 0]     2[ 00 1]     2[ 0-11] 
    2[ 01 1]     4[ 10 0]     4[-10 0]    -1           -2[ 10 0] 
   -2[ 01 0]    -2[ 00 1]    -2[ 0-11]    -2[ 01 1]    -4[ 10 0] 
   -4[-10 0] 
 KPSYM| THE SPACE GROUP OF THE CRYSTAL IS SYMMORPHIC
 KPSYM| THE POINT GROUP OF THE CRYSTAL IS  4/mmm(d4h)  [INDEX=17]
 KPSYM| NUMBER OF PRIMITIVE CELL:                               1
 KPSYM| THE POINT GROUP OF THE CRYSTAL CONTAINS THE INVERSION


 ******************* GENERATION OF SPECIAL POINTS *************************
 KPSYM| MONKHORST-PACK PARAMETERS (GENERALIZED) IQ1,IQ2,IQ3:
     2    2    2
 KPSYM| CONSTANT VECTOR SHIFT (MACDONALD) OF THIS MESH:
    0.00000   0.00000   0.00000
 KPSYM| SYMMETRIZATION SWITCH:   1 (SYMMETRIZATION OF MONKHORST-PACK MESH)
 KPSYM| The 1st Brillouin zone is confined by (at most)  3 planes
 KPSYM| as defined by the +/- halves of the vectors:
 KPSYM|     1.0000   -0.0000    0.0000
 KPSYM|    -0.0000    1.0000   -0.0000
 KPSYM|     0.0000   -0.0000    1.0000
 KPSYM|
 KPSYM| THE WAVEVECTOR MESH CONTAINS     8 POINTS
 KPSYM| THE POINTS ARE:
     1    0.2500    0.2500    0.2500     2    0.2500   -0.2500   -0.2500
     3   -0.2500    0.2500   -0.2500     4   -0.2500   -0.2500    0.2500
     5   -0.2500   -0.2500   -0.2500     6   -0.2500    0.2500    0.2500
     7    0.2500   -0.2500    0.2500     8    0.2500    0.2500   -0.2500


 KPSYM|    CROSS TABLE RELATING MESH POINTS WITH SPECIAL POINTS:
    IK -> SK    IK -> SK    IK -> SK    IK -> SK    IK -> SK
     1     1     2     1     3     1     4     1     5     1
     6     1     7     1     8     1

 KPSYM|     1 SPECIAL POINTS GENERATED
        WAVEVECTOR K            WEIGHT    UNFOLDING ROTATIONS
     1  0.2500  0.2500  0.2500       8     1 -1  2 -2  3 -3  4 -4
                        TOTAL:       8
 *******************************************************************************
 **                              Finished K290                                **
 *******************************************************************************

 Crystal Symmetry Information
       International Symbol:                                               P-42m
       Point Group Symbol:                                                  -42m
       Schoenflies Symbol:                                                 D2d^1
       Number of Symmetry Operations:                                          8

 K-point Symmetry Information
       Number of Special K-points:                                             1
                   Wavevector Basis                                       Weight
          1  -0.25000  -0.25000  -0.25000                                      8

       K-point Mesh:                                               2     2     2
                   Wavevector Basis                   Special Points    Rotation
          1  -0.25000  -0.25000  -0.25000              1           1           1
          2  -0.25000  -0.25000   0.25000              1           1          -4
          3  -0.25000   0.25000  -0.25000              1           1          -3
          4  -0.25000   0.25000   0.25000              1           1           2
          5   0.25000  -0.25000  -0.25000              1           1          -2
          6   0.25000  -0.25000   0.25000              1           1           3
          7   0.25000   0.25000  -0.25000              1           1           4
          8   0.25000   0.25000   0.25000              1           1          -1

       Atom Transformation Table
          Rot=    1     1    2    3    4    5
          Rot=    2     1    3    2    5    4
          Rot=    3     1    4    5    2    3
          Rot=    4     1    5    4    3    2
          Rot=   41     1    2    3    5    4
          Rot=   42     1    3    2    4    5
          Rot=   43     1    4    5    3    2
          Rot=   44     1    5    4    2    3

 -------------------------------------------------------------------------------
 ----                             MULTIGRID INFO                            ----
 -------------------------------------------------------------------------------
 total grid count     :           420              cutoff [a.u.]            1.00

 PW_GRID| Information for grid number                                          2
 PW_GRID| Cutoff [a.u.]                                                      1.0
 PW_GRID| spherical cutoff:                                                   NO
 PW_GRID|   Bounds   1             -4       3                Points:           8
 PW_GRID|   Bounds   2             -4       3                Points:           8
 PW_GRID|   Bounds   3             -4       3                Points:           8
 PW_GRID| Volume element (a.u.^3)   6.748         Volume (a.u.^3)      3455.1702
 PW_GRID| Grid span                                                    FULLSPACE

 POISSON| Solver                                                        PERIODIC
 POISSON| Periodicity                                                        XYZ

 RS_GRID| Information for grid number                                          2
 RS_GRID|   Bounds   1             -4       3                Points:           8
 RS_GRID|   Bounds   2             -4       3                Points:           8
 RS_GRID|   Bounds   3             -4       3                Points:           8

 Extrapolation method: initial_guess

 Number of electrons:                                                          8
 Number of occupied orbitals:                                                  4
 Number of molecular orbitals:                                                 8

 Number of orbital functions:                                                  8
 Number of independent orbital functions:                                      8


 SCF WAVEFUNCTION OPTIMIZATION

  Step     Update method      Time    Convergence         Total energy    Change
  ------------------------------------------------------------------------------
     1 GXTB-Raw    0.10E+01    0.1     0.82979746       -40.4488090894 -4.04E+01
     2 GXTB-Simple 0.20E+00    0.1     0.04788245       -40.4610419636 -1.22E-02
     3 GXTB-Simple 0.20E+00    0.1     0.03337886       -40.4671906549 -6.15E-03
     4 GXTB-FDIIS  0.10E+01    0.1     0.05524413       -40.4725624650 -5.37E-03
     5 GXTB-FDIIS  0.10E+01    0.1     0.03381037       -40.4737563094 -1.19E-03
     6 GXTB-FDIIS  0.10E+01    0.1     0.00193785       -40.4737558906  4.19E-07
     7 GXTB-FDIIS  0.10E+01    0.1     0.00101930       -40.4737569894 -1.10E-06
     8 GXTB-FDIIS  0.10E+01    0.1     0.00003683       -40.4737569914 -1.98E-09
     9 GXTB-FDIIS  0.10E+01    0.1     0.00000784       -40.4737569914 -6.37E-11
    10 GXTB-FDIIS  0.10E+01    0.1     0.00000005       -40.4737569914 -7.11E-15
    11 GXTB-FDIIS  0.10E+01    0.1     4.6308E-11       -40.4737569914  0.00E+00

  *** SCF run converged in    11 steps ***


  Core Hamiltonian energy:                                     -3.07153977226208
  Repulsive potential energy:                                   0.37448025722479
  Electrostatic energy:                                         0.01774301934853
  Self-consistent dispersion energy:                           -0.00112258865694
  Non-self consistent dispersion energy:                        0.00003895138934
  Correction for halogen bonding:                               0.00000000000000
  Electronic entropic energy:                                  -0.00000000000000
  Fermi energy:                                                -0.21273126824362

  Total energy:                                               -40.47375699143591
  Total energy (extrapolated to T->0):                        -40.47375699143591


 MULLIKEN POPULATION ANALYSIS

  # Atom   Element   Kind        Atomic population                    Net charge
       1     C          1                 4.285999                     -0.285999
       2     H          2                 0.928500                      0.071500
       3     H          2                 0.928500                      0.071500
       4     H          2                 0.928500                      0.071500
       5     H          2                 0.928500                      0.071500
 # Total charge                           8.000000                      0.000000


 ENERGY| Total FORCE_EVAL ( QS ) energy [hartree]            -40.473756991435913

 *******************************************************************************
 **                      Special K-Point Generation by K290                   **
 *******************************************************************************
 KPSYM| NUMBER OF ATOMS (STRUCT):     5
 KPSYM|          K   TYPE              X(K)
 KPSYM|          1     1   7.55885   7.55890   7.55890
 KPSYM|          2     2   8.86809   8.86815   8.86815
 KPSYM|          3     2   8.86809   6.24966   6.24966
 KPSYM|          4     2   6.24962   8.86815   6.24966
 KPSYM|          5     2   6.24962   6.24966   8.86815

 KPSYM| THE CRYSTAL SYSTEM IS TETRAGONAL WITH  8 OPERATIONS:
    1            2[ 10 0]     2[ 01 0]     2[ 00 1]    -2[ 0-11] 
   -2[ 01 1]    -4[ 10 0]    -4[-10 0] 
 KPSYM| THE SPACE GROUP OF THE CRYSTAL IS SYMMORPHIC
 KPSYM| THE POINT GROUP OF THE CRYSTAL IS  mmm(d2h)    [INDEX=27]
 KPSYM| NUMBER OF PRIMITIVE CELL:                               1

 KPSYM| ALTHOUGH THE POINT GROUP OF THE CRYSTAL DOES NOT
 KPSYM| CONTAIN INVERSION, THE SPECIAL POINT GENERATION ALGORITHM
 KPSYM| WILL CONSIDER IT AS A SYMMETRY OPERATION

 KPSYM| CRYSTALLOGRAPHIC DATA:
    A1  15.11771   0.00000   0.00000          B1   0.06615  -0.00000   0.00000
    A2   0.00000  15.11781   0.00000          B2  -0.00000   0.06615  -0.00000
    A3   0.00000   0.00000  15.11781          B3   0.00000  -0.00000   0.06615

 KPSYM| GROUP-THEORETICAL INFORMATION:
 KPSYM|    POINT GROUP OF THE PRIMITIVE LATTICE: TETRAGONAL   SYSTEM
 KPSYM|    SYMMORPHIC GROUP
 KPSYM|    NO INVERSION SYMMETRY
 KPSYM|    TOTAL NUMBER OF ELEMENTS IN THE POINT GROUP:  8
 KPSYM|    TO SUM UP: (4  1  1  0  8 27)

 KPSYM|    LIST OF THE ROTATIONS:
          1   2   3   4  41  42  43  44

 KPSYM|    ATOM TRANSFORMATION TABLE (MARADUDIN,VOSKO):
    R  AT->AT    R  AT->AT    R  AT->AT    R  AT->AT    R  AT->AT
    1 [Identity]
    2   1   1    2   2   3    2   3   2    2   4   5    2   5   4
    3   1   1    3   2   4    3   3   5    3   4   2    3   5   3
    4   1   1    4   2   5    4   3   4    4   4   3    4   5   2
   41   1   1   41   2   2   41   3   3   41   4   5   41   5   4
   42   1   1   42   2   3   42   3   2   42   4   4   42   5   5
   43   1   1   43   2   4   43   3   5   43   4   3   43   5   2
   44   1   1   44   2   5   44   3   4   44   4   2   44   5   3

 KPSYM|    LIST OF THE 3 X 3 ROTATION MATRICES:
      1 ( 1:  1        )       1.000000      0.000000      0.000000
                               0.000000      1.000000      0.000000
                               0.000000      0.000000      1.000000
      2 ( 2:  2[ 10 0] )       1.000000      0.000000      0.000000
                               0.000000     -1.000000      0.000000
                               0.000000      0.000000     -1.000000
      3 ( 3:  2[ 01 0] )      -1.000000      0.000000      0.000000
                               0.000000      1.000000      0.000000
                               0.000000      0.000000     -1.000000
      4 ( 4:  2[ 00 1] )      -1.000000      0.000000      0.000000
                               0.000000     -1.000000      0.000000
                               0.000000      0.000000      1.000000
      5 (41: -2[ 0-11] )       1.000000     -0.000000     -0.000000
                              -0.000000     -0.000000      1.000000
                              -0.000000      1.000000     -0.000000
      6 (42: -2[ 01 1] )       1.000000     -0.000000     -0.000000
                              -0.000000     -0.000000     -1.000000
                              -0.000000     -1.000000     -0.000000
      7 (43: -4[ 10 0] )      -1.000000     -0.000000     -0.000000
                              -0.000000     -0.000000      1.000000
                              -0.000000     -1.000000     -0.000000
      8 (44: -4[-10 0] )      -1.000000     -0.000000     -0.000000
                              -0.000000     -0.000000     -1.000000
                              -0.000000      1.000000     -0.000000

 KPSYM| THE CRYSTAL SYSTEM IS TETRAGONAL WITH 16 OPERATIONS:
    1            2[ 10 0]     2[ 01 0]     2[ 00 1]     2[ 0-11] 
    2[ 01 1]     4[ 10 0]     4[-10 0]    -1           -2[ 10 0] 
   -2[ 01 0]    -2[ 00 1]    -2[ 0-11]    -2[ 01 1]    -4[ 10 0] 
   -4[-10 0] 
 KPSYM| THE SPACE GROUP OF THE CRYSTAL IS SYMMORPHIC
 KPSYM| THE POINT GROUP OF THE CRYSTAL IS  4/mmm(d4h)  [INDEX=17]
 KPSYM| NUMBER OF PRIMITIVE CELL:                               1
 KPSYM| THE POINT GROUP OF THE CRYSTAL CONTAINS THE INVERSION


 ******************* GENERATION OF SPECIAL POINTS *************************
 KPSYM| MONKHORST-PACK PARAMETERS (GENERALIZED) IQ1,IQ2,IQ3:
     2    2    2
 KPSYM| CONSTANT VECTOR SHIFT (MACDONALD) OF THIS MESH:
    0.00000   0.00000   0.00000
 KPSYM| SYMMETRIZATION SWITCH:   1 (SYMMETRIZATION OF MONKHORST-PACK MESH)
 KPSYM| The 1st Brillouin zone is confined by (at most)  3 planes
 KPSYM| as defined by the +/- halves of the vectors:
 KPSYM|     1.0000   -0.0000    0.0000
 KPSYM|    -0.0000    1.0000   -0.0000
 KPSYM|     0.0000   -0.0000    1.0000
 KPSYM|
 KPSYM| THE WAVEVECTOR MESH CONTAINS     8 POINTS
 KPSYM| THE POINTS ARE:
     1    0.2500    0.2500    0.2500     2    0.2500   -0.2500   -0.2500
     3   -0.2500    0.2500   -0.2500     4   -0.2500   -0.2500    0.2500
     5   -0.2500   -0.2500   -0.2500     6   -0.2500    0.2500    0.2500
     7    0.2500   -0.2500    0.2500     8    0.2500    0.2500   -0.2500


 KPSYM|    CROSS TABLE RELATING MESH POINTS WITH SPECIAL POINTS:
    IK -> SK    IK -> SK    IK -> SK    IK -> SK    IK -> SK
     1     1     2     1     3     1     4     1     5     1
     6     1     7     1     8     1

 KPSYM|     1 SPECIAL POINTS GENERATED
        WAVEVECTOR K            WEIGHT    UNFOLDING ROTATIONS
     1  0.2500  0.2500  0.2500       8     1 -1  2 -2  3 -3  4 -4
                        TOTAL:       8
 *******************************************************************************
 **                              Finished K290                                **
 *******************************************************************************

 Crystal Symmetry Information
       International Symbol:                                               P-42m
       Point Group Symbol:                                                  -42m
       Schoenflies Symbol:                                                 D2d^1
       Number of Symmetry Operations:                                          8

 K-point Symmetry Information
       Number of Special K-points:                                             1
                   Wavevector Basis                                       Weight
          1  -0.25000  -0.25000  -0.25000                                      8

       K-point Mesh:                                               2     2     2
                   Wavevector Basis                   Special Points    Rotation
          1  -0.25000  -0.25000  -0.25000              1           1           1
          2  -0.25000  -0.25000   0.25000              1           1          -4
          3  -0.25000   0.25000  -0.25000              1           1          -3
          4  -0.25000   0.25000   0.25000              1           1           2
          5   0.25000  -0.25000  -0.25000              1           1          -2
          6   0.25000  -0.25000   0.25000              1           1           3
          7   0.25000   0.25000  -0.25000              1           1           4
          8   0.25000   0.25000   0.25000              1           1          -1

       Atom Transformation Table
          Rot=    1     1    2    3    4    5
          Rot=    2     1    3    2    5    4
          Rot=    3     1    4    5    2    3
          Rot=    4     1    5    4    3    2
          Rot=   41     1    2    3    5    4
          Rot=   42     1    3    2    4    5
          Rot=   43     1    4    5    3    2
          Rot=   44     1    5    4    2    3

 -------------------------------------------------------------------------------
 ----                             MULTIGRID INFO                            ----
 -------------------------------------------------------------------------------
 total grid count     :           420              cutoff [a.u.]            1.00

 PW_GRID| Information for grid number                                          3
 PW_GRID| Cutoff [a.u.]                                                      1.0
 PW_GRID| spherical cutoff:                                                   NO
 PW_GRID|   Bounds   1             -4       3                Points:           8
 PW_GRID|   Bounds   2             -4       3                Points:           8
 PW_GRID|   Bounds   3             -4       3                Points:           8
 PW_GRID| Volume element (a.u.^3)   6.748         Volume (a.u.^3)      3455.1245
 PW_GRID| Grid span                                                    FULLSPACE

 POISSON| Solver                                                        PERIODIC
 POISSON| Periodicity                                                        XYZ

 RS_GRID| Information for grid number                                          3
 RS_GRID|   Bounds   1             -4       3                Points:           8
 RS_GRID|   Bounds   2             -4       3                Points:           8
 RS_GRID|   Bounds   3             -4       3                Points:           8

 Extrapolation method: initial_guess

 Number of electrons:                                                          8
 Number of occupied orbitals:                                                  4
 Number of molecular orbitals:                                                 8

 Number of orbital functions:                                                  8
 Number of independent orbital functions:                                      8


 SCF WAVEFUNCTION OPTIMIZATION

  Step     Update method      Time    Convergence         Total energy    Change
  ------------------------------------------------------------------------------
     1 GXTB-Raw    0.10E+01    0.1     0.82980019       -40.4488112657 -4.04E+01
     2 GXTB-Simple 0.20E+00    0.1     0.04788268       -40.4610442392 -1.22E-02
     3 GXTB-Simple 0.20E+00    0.1     0.03337900       -40.4671929703 -6.15E-03
     4 GXTB-FDIIS  0.10E+01    0.1     0.05524385       -40.4725647667 -5.37E-03
     5 GXTB-FDIIS  0.10E+01    0.1     0.03381055       -40.4737586448 -1.19E-03
     6 GXTB-FDIIS  0.10E+01    0.1     0.00193801       -40.4737582258  4.19E-07
     7 GXTB-FDIIS  0.10E+01    0.1     0.00101941       -40.4737593249 -1.10E-06
     8 GXTB-FDIIS  0.10E+01    0.1     0.00003683       -40.4737593268 -1.98E-09
     9 GXTB-FDIIS  0.10E+01    0.1     0.00000780       -40.4737593269 -6.37E-11
    10 GXTB-FDIIS  0.10E+01    0.1     0.00000009       -40.4737593269 -7.11E-15
    11 GXTB-FDIIS  0.10E+01    0.1     2.3563E-11       -40.4737593269 -7.11E-15

  *** SCF run converged in    11 steps ***


  Core Hamiltonian energy:                                     -3.07154338260957
  Repulsive potential energy:                                   0.37448827552327
  Electrostatic energy:                                         0.01774409792409
  Self-consistent dispersion energy:                           -0.00112257357056
  Non-self consistent dispersion energy:                        0.00003895084958
  Correction for halogen bonding:                               0.00000000000000
  Electronic entropic energy:                                  -0.00000000000000
  Fermi energy:                                                -0.21273072843689

  Total energy:                                               -40.47375932689127
  Total energy (extrapolated to T->0):                        -40.47375932689127


 MULLIKEN POPULATION ANALYSIS

  # Atom   Element   Kind        Atomic population                    Net charge
       1     C          1                 4.286003                     -0.286003
       2     H          2                 0.928499                      0.071501
       3     H          2                 0.928499                      0.071501
       4     H          2                 0.928499                      0.071501
       5     H          2                 0.928499                      0.071501
 # Total charge                           8.000000                      0.000000


 ENERGY| Total FORCE_EVAL ( QS ) energy [hartree]            -40.473759326891269

 *******************************************************************************
 **                      Special K-Point Generation by K290                   **
 *******************************************************************************
 KPSYM| NUMBER OF ATOMS (STRUCT):     5
 KPSYM|          K   TYPE              X(K)
 KPSYM|          1     1   7.55895   7.55890   7.55890
 KPSYM|          2     2   8.86820   8.86815   8.86815
 KPSYM|          3     2   8.86819   6.24966   6.24966
 KPSYM|          4     2   6.24972   8.86815   6.24966
 KPSYM|          5     2   6.24971   6.24966   8.86815

 KPSYM| THE CRYSTAL SYSTEM IS MONOCLINIC WITH  2 OPERATIONS:
    1            2[ 00 1] 
 KPSYM| THE SPACE GROUP OF THE CRYSTAL IS SYMMORPHIC
 KPSYM| THE POINT GROUP OF THE CRYSTAL IS  2(c2)       [INDEX= 3]
 KPSYM| NUMBER OF PRIMITIVE CELL:                               1

 KPSYM| ALTHOUGH THE POINT GROUP OF THE CRYSTAL DOES NOT
 KPSYM| CONTAIN INVERSION, THE SPECIAL POINT GENERATION ALGORITHM
 KPSYM| WILL CONSIDER IT AS A SYMMETRY OPERATION

 KPSYM| CRYSTALLOGRAPHIC DATA:
    A1  15.11781   0.00000   0.00000          B1   0.06615  -0.00000   0.00000
    A2   0.00010  15.11781   0.00000          B2  -0.00000   0.06615  -0.00000
    A3   0.00000   0.00000  15.11781          B3   0.00000  -0.00000   0.06615

 KPSYM| GROUP-THEORETICAL INFORMATION:
 KPSYM|    POINT GROUP OF THE PRIMITIVE LATTICE: MONOCLINIC   SYSTEM
 KPSYM|    SYMMORPHIC GROUP
 KPSYM|    NO INVERSION SYMMETRY
 KPSYM|    TOTAL NUMBER OF ELEMENTS IN THE POINT GROUP:  2
 KPSYM|    TO SUM UP: (2  1  1  0  2  3)

 KPSYM|    LIST OF THE ROTATIONS:
          1   4

 KPSYM|    ATOM TRANSFORMATION TABLE (MARADUDIN,VOSKO):
    R  AT->AT    R  AT->AT    R  AT->AT    R  AT->AT    R  AT->AT
    1 [Identity]
    4   1   1    4   2   5    4   3   4    4   4   3    4   5   2

 KPSYM|    LIST OF THE 3 X 3 ROTATION MATRICES:
[...]

 Number of electrons:                                                          8
 Number of occupied orbitals:                                                  4
 Number of molecular orbitals:                                                 8

 Number of orbital functions:                                                  8
 Number of independent orbital functions:                                      8


 SCF WAVEFUNCTION OPTIMIZATION

  Step     Update method      Time    Convergence         Total energy    Change
  ------------------------------------------------------------------------------
     1 GXTB-Raw    0.10E+01    0.1     0.82979833       -40.4488072585 -4.04E+01
     2 GXTB-Simple 0.20E+00    0.1     0.04788236       -40.4610400113 -1.22E-02
     3 GXTB-Simple 0.20E+00    0.1     0.03337884       -40.4671886516 -6.15E-03
     4 GXTB-FDIIS  0.10E+01    0.1     0.05524501       -40.4725604680 -5.37E-03
     5 GXTB-FDIIS  0.10E+01    0.1     0.03381011       -40.4737542741 -1.19E-03
     6 GXTB-FDIIS  0.10E+01    0.1     0.00193770       -40.4737538554  4.19E-07
     7 GXTB-FDIIS  0.10E+01    0.1     0.00101920       -40.4737549540 -1.10E-06
     8 GXTB-FDIIS  0.10E+01    0.1     0.00003682       -40.4737549560 -1.98E-09
     9 GXTB-FDIIS  0.10E+01    0.1     0.00000779       -40.4737549561 -6.37E-11
    10 GXTB-FDIIS  0.10E+01    0.1     0.00000010       -40.4737549561 -1.42E-14
    11 GXTB-FDIIS  0.10E+01    0.1     6.7412E-11       -40.4737549561  0.00E+00

  *** SCF run converged in    11 steps ***


  Core Hamiltonian energy:                                     -3.07153647370914
  Repulsive potential energy:                                   0.37447269416395
  Electrostatic energy:                                         0.01774211295808
  Self-consistent dispersion energy:                           -0.00112260425292
  Non-self consistent dispersion energy:                        0.00003895194201
  Correction for halogen bonding:                               0.00000000000000
  Electronic entropic energy:                                  -0.00000000000000
  Fermi energy:                                                -0.21272884248400

  Total energy:                                               -40.47375495607868
  Total energy (extrapolated to T->0):                        -40.47375495607868


 MULLIKEN POPULATION ANALYSIS

  # Atom   Element   Kind        Atomic population                    Net charge
       1     C          1                 4.285996                     -0.285996
       2     H          2                 0.928506                      0.071494
       3     H          2                 0.928501                      0.071499
       4     H          2                 0.928499                      0.071501
       5     H          2                 0.928499                      0.071501
 # Total charge                           8.000000                      0.000000


 ENERGY| Total FORCE_EVAL ( QS ) energy [hartree]            -40.473754956078679


 MODULE DEBUG: ATOMIC COORDINATES IN ANGSTROM

   Atom Kind Element         X             Y             Z       Z(eff)     Mass
      1    1 C     6      4.000000      4.000000      4.000000   4.0000  12.0107
      2    2 H     1      4.692767      4.692820      4.692820   1.0000   1.0079
      3    2 H     1      4.692820      3.307180      3.307180   1.0000   1.0079
      4    2 H     1      3.307180      4.692820      3.307180   1.0000   1.0079
      5    2 H     1      3.307180      3.307180      4.692820   1.0000   1.0079


 Crystal Symmetry Information
       International Symbol:                                                  Cm
       Point Group Symbol:                                                     m
       Schoenflies Symbol:                                                  Cs^3
       Number of Symmetry Operations:                                          2

 K-point Symmetry Information
       Number of Special K-points:                                             4
                   Wavevector Basis                                       Weight
          1  -0.25000  -0.25000  -0.25000                                      2
          2  -0.25000  -0.25000   0.25000                                      2
          3  -0.25000   0.25000  -0.25000                                      2
          4  -0.25000   0.25000   0.25000                                      2

       K-point Mesh:                                               2     2     2
                   Wavevector Basis                   Special Points    Rotation
          1  -0.25000  -0.25000  -0.25000              1           1           1
          2  -0.25000  -0.25000   0.25000              2           2           1
          3  -0.25000   0.25000  -0.25000              3           3           1
          4  -0.25000   0.25000   0.25000              4           4           1
          5   0.25000  -0.25000  -0.25000              4           4           2
          6   0.25000  -0.25000   0.25000              3           3           2
          7   0.25000   0.25000  -0.25000              2           2           2
          8   0.25000   0.25000   0.25000              1           1           2

 Extrapolation method: initial_guess

 Number of electrons:                                                          8
 Number of occupied orbitals:                                                  4
 Number of molecular orbitals:                                                 8

 Number of orbital functions:                                                  8
 Number of independent orbital functions:                                      8


 SCF WAVEFUNCTION OPTIMIZATION

  Step     Update method      Time    Convergence         Total energy    Change
  ------------------------------------------------------------------------------
     1 GXTB-Raw    0.10E+01    0.1     0.82980623       -40.4488130956 -4.04E+01
     2 GXTB-Simple 0.20E+00    0.1     0.04788314       -40.4610461906 -1.22E-02
     3 GXTB-Simple 0.20E+00    0.1     0.03337932       -40.4671949726 -6.15E-03
     4 GXTB-FDIIS  0.10E+01    0.1     0.05524422       -40.4725667628 -5.37E-03
     5 GXTB-FDIIS  0.10E+01    0.1     0.03381081       -40.4737606791 -1.19E-03
     6 GXTB-FDIIS  0.10E+01    0.1     0.00193818       -40.4737602600  4.19E-07
     7 GXTB-FDIIS  0.10E+01    0.1     0.00101952       -40.4737613593 -1.10E-06
     8 GXTB-FDIIS  0.10E+01    0.1     0.00003683       -40.4737613613 -1.98E-09
     9 GXTB-FDIIS  0.10E+01    0.1     0.00000779       -40.4737613613 -6.37E-11
    10 GXTB-FDIIS  0.10E+01    0.1     0.00000010       -40.4737613613 -7.11E-15
    11 GXTB-FDIIS  0.10E+01    0.1     6.7365E-11       -40.4737613613  0.00E+00

  *** SCF run converged in    11 steps ***


  Core Hamiltonian energy:                                     -3.07154668108820
  Repulsive potential energy:                                   0.37449583931327
  Electrostatic energy:                                         0.01774500416074
  Self-consistent dispersion energy:                           -0.00112255797594
  Non-self consistent dispersion energy:                        0.00003895029687
  Correction for halogen bonding:                               0.00000000000000
  Electronic entropic energy:                                  -0.00000000000000
  Fermi energy:                                                -0.21272238531128

  Total energy:                                               -40.47376136133535
  Total energy (extrapolated to T->0):                        -40.47376136133535


 MULLIKEN POPULATION ANALYSIS

  # Atom   Element   Kind        Atomic population                    Net charge
       1     C          1                 4.286006                     -0.286006
       2     H          2                 0.928494                      0.071506
       3     H          2                 0.928499                      0.071501
       4     H          2                 0.928501                      0.071499
       5     H          2                 0.928501                      0.071499
 # Total charge                           8.000000                     -0.000000


 ENERGY| Total FORCE_EVAL ( QS ) energy [hartree]            -40.473761361335349

 DEBUG| Atom    E(x + 0.0001)    E(x - 0.0001)     f(numerical)    f(analytical)
 DEBUG|    2     -40.47375496     -40.47376136      -0.03202628      -0.03202628

 DEBUG| Atom  Coordinate   f(numerical)   f(analytical)   Difference   Error [%]
 DEBUG|    2      x         -0.03202628     -0.03202628  -0.00000000       -0.00

 DEBUG|======================== BEGIN OF SUMMARY ===============================
 DEBUG| Atom  Coordinate   f(numerical)   f(analytical)   Difference   Error [%]
 DEBUG|    2      x         -0.03202628     -0.03202628  -0.00000000       -0.00
 DEBUG| Sum of differences:                               0.00000000        0.00
 DEBUG|======================== END OF SUMMARY =================================

 -------------------------------------------------------------------------------
 -                                                                             -
 -                                DBCSR STATISTICS                             -
 -                                                                             -
 -------------------------------------------------------------------------------
 COUNTER                                    TOTAL       BLAS       SMM       ACC
 flops inhomo. stacks                           0       0.0%      0.0%      0.0%
 flops total                         0.000000E+00       0.0%      0.0%      0.0%
 flops max/rank                      0.000000E+00       0.0%      0.0%      0.0%
 matmuls inhomo. stacks                         0       0.0%      0.0%      0.0%
 matmuls total                                  0       0.0%      0.0%      0.0%
 number of processed stacks                     0       0.0%      0.0%      0.0%
 average stack size                                     0.0       0.0       0.0
 marketing flops                     0.000000E+00
 -------------------------------------------------------------------------------
 -                                                                             -
 -                      DBCSR MESSAGE PASSING PERFORMANCE                      -
 -                                                                             -
 -------------------------------------------------------------------------------
 ROUTINE             CALLS      AVE VOLUME [Bytes]
 MP_Bcast                1                     12.
 MP_Allreduce           19                     21.
 MP_Alltoall         67416                    572.
 -------------------------------------------------------------------------------

 -------------------------------------------------------------------------------
 -                                                                             -
 -                          OFFLOAD MEMPOOL STATISTICS                         -
 -                                                                             -
 -------------------------------------------------------------------------------
 Memory consumption                Number of allocations  Used [MiB]  Size [MiB]
 Host                                                  1           0           0
 -------------------------------------------------------------------------------

 MEMORY| Estimated peak process memory [MiB]                                 225

 -------------------------------------------------------------------------------
 ----                             MULTIGRID INFO                            ----
 -------------------------------------------------------------------------------
 total grid count     :           420              cutoff [a.u.]            1.00

 -------------------------------------------------------------------------------
 -                                                                             -
 -                         MESSAGE PASSING PERFORMANCE                         -
 -                                                                             -
 -------------------------------------------------------------------------------

 ROUTINE             CALLS      AVE VOLUME [Bytes]
 MP_Group               20
 MP_Bcast            69388                      7.
 MP_Allreduce      2419156                     50.
 MP_Sync                20
 MP_Wait             57620
 MP_ISend            80668                     79.
 MP_IRecv            80668                     79.
 -------------------------------------------------------------------------------


 -------------------------------------------------------------------------------
 -                                                                             -
 -                           R E F E R E N C E S                               -
 -                                                                             -
 -------------------------------------------------------------------------------
 
 CP2K version 2026.1 (Development Version), the CP2K developers group (2026).
 CP2K is freely available from https://www.cp2k.org/ .
 
 M. Iannuzzi, J. Wilhelm, F. Stein, A. Bussy, H. Elgabarty, D. Golze, A. Hehn, 
 M. Graml, S. Marek, B. Sertcan Gökmen, C. Schran, H. Forbert, R. Z. 
 Khaliullin, A. Kozhevnikov, M. Taillefumier, R. Meli, V. V. Rybkin, M. Brehm, 
 R. Schade, O. Schütt, J. V. Pototschnig, H. Mirhosseini, A. Knüpfer, D. Marx, 
 M. Krack, J. Hutter, T. D. Kühne.
 J. Phys. Chem. B 130, 1237-1310 (2026).
 The CP2K Program Package Made Simple.
 https://doi.org/10.1021/acs.jpcb.5c05851

 A. Katbashev, M. Stahn, T. Rose, V. Alizadeh, M. Friede, C. Plett, P. 
 Steinbach, S. Ehlert.
 J. Phys. Chem. A 129, 2667-2682 (2025).
 Overview on Building Blocks and Applications of Efficient and Robust Extended 
 Tight Binding.
 https://doi.org/10.1021/acs.jpca.4c08263

 T. D. Kühne, M. Iannuzzi, M. Del Ben, V. V. Rybkin, P. Seewald, F. Stein, T. 
 Laino, R. Z. Khaliullin, O. Schütt, F. Schiffmann, D. Golze, J. Wilhelm, S. 
 Chulkov, M. H. Bani-Hashemian, V. Weber, U. Borstnik, M. Taillefumier, A. S. 
 Jakobovits, A. Lazzaro, H. Pabst, T. Müller, R. Schade, M. Guidon, S. 
 Andermatt, N. Holmberg, G. K. Schenter, A. Hehn, A. Bussy, F. Belleflamme, G. 
 Tabacchi, A. Glöß, M. Lass, I. Bethune, C. J. Mundy, C. Plessl, M. Watkins, 
 J. VandeVondele, M. Krack, J. Hutter.
 J. Chem. Phys. 152, 194103 (2020).
 CP2K: An electronic structure and molecular dynamics software package - 
 Quickstep: Efficient and accurate electronic structure calculations.
 https://doi.org/10.1063/5.0007045

 P. Pracht, E. Caldeweyher, S. Ehlert, S. Grimme.
 ChemRxiv, (2019).
 A Robust Non-Self-Consistent Tight-Binding Quantum Chemistry Method for large 
 Molecules.
 https://doi.org/10.26434/chemrxiv.8326202.v1

 A. Togo, I. Tanaka.
 arXiv, 1808.01590 (2018).
 Spglib : a software library for crystal symmetry search.

 S. Grimme, C. Bannwarth, P. Shushkov.
 J. Chem. Theory Comput. 13, 1989 (2017).
 A Robust and Accurate Tight-Binding Quantum Chemical Method for Structures, 
 Vibrational Frequencies, and Noncovalent Interactions of Large Molecular 
 Systems Parametrized for All spd-Block Elements (Z = 1-86).
 https://doi.org/10.1021/acs.jctc.7b00118

 O. Schuett, P. Messmer, J. Hutter, J. VandeVondele.
 Electronic Structure Calculations on Graphics Processing Units, 173-190 (2016).
 GPU-Accelerated Sparse Matrix-Matrix Multiplication for Linear Scaling Density 
 Functional Theory.
 https://doi.org/10.1002/9781118670712.ch8

 U. Borstnik, J. VandeVondele, V. Weber, J. Hutter.
 Parallel Comput. 40, 47-58 (2014).
 Sparse matrix multiplication: The distributed block-compressed sparse row 
 library.
 https://doi.org/10.1016/j.parco.2014.03.012

 T. D. Kühne, M. Krack, F. R. Mohamed, M. Parrinello.
 Phys. Rev. Lett. 98, 066401 (2007).
 Efficient and accurate Car-Parrinello-like approach to Born-Oppenheimer 
 molecular dynamics.
 https://doi.org/10.1103/PhysRevLett.98.066401

 M. Frigo, S. G. Johnson.
 Proc. IEEE 93, 216-231 (2005).
 The design and implementation of FFTW3.
 https://doi.org/10.1109/JPROC.2004.840301

 J. Kolafa.
 J. Comput. Chem. 25, 335-342 (2004).
 Time-reversible always stable predictor-corrector method for molecular dynamics 
 of polarizable molecules.
 https://doi.org/10.1002/jcc.10385

 T. G. Worlton, J. L. Warren.
 Comput. Phys. Commun. 3, 88-117 (1972).
 Group-theoretical analysis of lattice vibrations.
 https://doi.org/10.1016/0010-4655(72)90058-6

 N. D. Mermin.
 Phys. Rev. 137, A1441-A1443 (1965).
 Thermal Properties of the Inhomogeneous Electron Gas.
 https://doi.org/10.1103/PhysRev.137.A1441


 -------------------------------------------------------------------------------
 -                                                                             -
 -                                T I M I N G                                  -
 -                                                                             -
 -------------------------------------------------------------------------------
 SUBROUTINE                       CALLS  ASD         SELF TIME        TOTAL TIME
                                MAXIMUM       AVERAGE  MAXIMUM  AVERAGE  MAXIMUM
 CP2K                                 1  1.0    0.015    0.015   41.175   41.175
 qs_energies                         23  2.1    0.018    0.018   39.792   39.792
 scf_env_do_scf                      23  3.1    0.001    0.001   24.100   24.100
 scf_env_do_scf_inner_loop          244  4.0    3.932    3.932   24.099   24.099
 build_tblite_matrices               25  4.0    0.817    0.817   14.180   14.180
 cp_dbcsr_alloc_block_from_nbl   236128  5.0   13.503   13.503   14.138   14.138
 qs_energies_init_hamiltonians       23  3.1    0.000    0.000   13.835   13.835
 qs_ks_update_qs_env                265  4.9    0.001    0.001   11.471   11.471
 rebuild_ks_matrix                  267  5.9    0.001    0.001   11.000   11.000
 build_tblite_ks_matrix             267  6.9    6.574    6.574   10.999   10.999
 rskp_transform                    6699  6.6    5.605    5.605    5.605    5.605
 qs_scf_new_mos_kp                  244  5.0    0.001    0.001    4.582    4.582
 do_general_diag_kp                 244  6.0    0.049    0.049    4.581    4.581
 qs_forces                            2  2.0    0.001    0.001    3.835    3.835
 dbcsr_iterator_start           2444869  6.7    1.617    1.617    2.050    2.050
 kpoint_density_transform           249  7.0    0.047    0.047    1.619    1.619
 dbcsr_iterator_stop            2444869  6.7    1.293    1.293    1.616    1.616
 evaluate_core_matrix_traces        511  5.5    0.001    0.001    1.314    1.314
 calculate_ptrace_kp                511  6.5    0.082    0.082    1.313    1.313
 dbcsr_dot                       210830  7.5    0.844    0.844    1.245    1.245
 dbcsr_copy                      211004  6.5    0.858    0.858    1.204    1.204
 transform_dmat                    1316  8.0    1.071    1.071    1.071    1.071
 -------------------------------------------------------------------------------

 The number of warnings for this run is : 0
 
 -------------------------------------------------------------------------------
  **** **** ******  **  PROGRAM ENDED AT                 2026-07-16 15:18:29.914
 ***** ** ***  *** **   PROGRAM RAN ON                                     terok
 **    ****   ******    PROGRAM RAN BY                                  kuehne88
 ***** **    ** ** **   PROGRAM PROCESS ID                                203583
  **** **  *******  **  PROGRAM STOPPED IN /home/kuehne88/work/codex-gxtb-cp2k-b
                                           lock-helpers-20260716/runtime_block_h
                                           elpers_derivatives_baseline/k290_222_
                                           force_stress_debug
