 DBCSR| CPU Multiplication driver                                           BLAS (U)
 DBCSR| Multrec recursion limit                                              512 (U)
 DBCSR| Multiplication stack size                                           1000 (D)
 DBCSR| Maximum elements for images                                    UNLIMITED (U)
 DBCSR| Multiplicative factor virtual images                                   1 (U)
 DBCSR| Use multiplication densification                                       T (D)
 DBCSR| Multiplication size stacks                                             3 (U)
 DBCSR| Use memory pool for CPU allocation                                     F (U)
 DBCSR| Number of 3D layers                                               SINGLE (U)
 DBCSR| Use MPI memory allocation                                              F (U)
 DBCSR| Use RMA algorithm                                                      F (U)
 DBCSR| Use Communication thread                                               T (U)
 DBCSR| Communication thread load                                             87 (D)
 DBCSR| MPI: My process id                                                     0
 DBCSR| MPI: Number of processes                                               1
 DBCSR| OMP: Current number of threads                                         1
 DBCSR| OMP: Max number of threads                                             1
 DBCSR| Split modifier for TAS multiplication algorithm                  1.0E+00 (U)


  **** **** ******  **  PROGRAM STARTED AT               2026-07-21 16:10:14.090
 ***** ** ***  *** **   PROGRAM STARTED ON                                 terok
 **    ****   ******    PROGRAM STARTED BY                              kuehne88
 ***** **    ** ** **   PROGRAM PROCESS ID                               1031038
  **** **  *******  **  PROGRAM STARTED IN /home/kuehne88/work/h2o-molecular-lim
                                           it-20260721/stress_debug_8_50/raw/H2O
                                           _stress_L15

 CP2K| version string:                 CP2K version 2026.2 (Development Version)
 CP2K| source code revision number:                                    8520b2e59
 CP2K| cp2kflags: omp parallel scalapack spglib s_dftd3 mctc-lib tblite tblite_g
 CP2K|            xtb
 CP2K| is freely available from                            https://www.cp2k.org/
 CP2K| Program compiled at                                   2026-07-18 23:48:15
 CP2K| Program compiled on                                                 terok
 CP2K| Program compiled for                                               x86_64
 CP2K| Data directory path                            /usr/local/share/cp2k/data
 CP2K| Input file name        /home/kuehne88/work/h2o-molecular-limit-20260721/s

 GLOBAL| Force Environment number                                              1
 GLOBAL| Basis set file name                                           BASIS_SET
 GLOBAL| Potential file name                                           POTENTIAL
 GLOBAL| MM Potential file name                                     MM_POTENTIAL
 GLOBAL| Coordinate file name                                      __STD_INPUT__
 GLOBAL| Method name                                                        CP2K
 GLOBAL| Project name                                             H2O_stress_L15
 GLOBAL| Run type                                                          DEBUG
 GLOBAL| FFT library                                                       FFTW3
 GLOBAL| Diagonalization library                                       ScaLAPACK
 GLOBAL| Cholesky decomposition library                                ScaLAPACK
 GLOBAL| DGEMM library                                                      BLAS
 GLOBAL| Direct generalized diagonalization requested                          F
 GLOBAL| Orthonormality check for eigenvectors                          DISABLED
 GLOBAL| Matrix multiplication library                                 ScaLAPACK
 GLOBAL| All-to-all communication in single precision                          F
 GLOBAL| FFTs using library dependent lengths                                  F
 GLOBAL| Grid backend                                                       AUTO
 GLOBAL| Global print level                                               MEDIUM
 GLOBAL| MPI I/O enabled                                                       T
 GLOBAL| Total number of message passing processes                             1
 GLOBAL| Number of distributed systems (nodes)                                 1
 GLOBAL| Number of threads for this process                                    1
 GLOBAL| This output is from process                                           0
 GLOBAL| OpenMP stack size per thread (OMP_STACKSIZE)                    default
 GLOBAL| CPU model name                                       AMD EPYC Processor
 GLOBAL| CPUID                                                              1002

 MEMORY| system memory details [Kb]
 MEMORY|                        rank 0           min           max       average
 MEMORY| MemTotal            528104804     528104804     528104804     528104804
 MEMORY| MemFree             511886904     511886904     511886904     511886904
 MEMORY| Buffers                    20            20            20            20
 MEMORY| Cached               12272996      12272996      12272996      12272996
 MEMORY| Slab                  2373420       2373420       2373420       2373420
 MEMORY| SReclaimable          1020468       1020468       1020468       1020468
 MEMORY| MemLikelyFree       525180388     525180388     525180388     525180388


 *** WARNING in environment.F:1098 :: FFT library FFTW3 is not available. ***
 *** Trying FFT library FFTSG.                                            ***


 *** Fundamental physical constants (SI units) ***

 *** Literature: B. J. Mohr and B. N. Taylor,
 ***             CODATA recommended values of the fundamental physical
 ***             constants: 2006, Web Version 5.1
 ***             http://physics.nist.gov/constants

 Speed of light in vacuum [m/s]                             2.99792458000000E+08
 Magnetic constant or permeability of vacuum [N/A**2]       1.25663706143592E-06
 Electric constant or permittivity of vacuum [F/m]          8.85418781762039E-12
 Planck constant (h) [J*s]                                  6.62606896000000E-34
 Planck constant (h-bar) [J*s]                              1.05457162825177E-34
 Elementary charge [C]                                      1.60217648700000E-19
 Electron mass [kg]                                         9.10938215000000E-31
 Electron g factor [ ]                                     -2.00231930436220E+00
 Proton mass [kg]                                           1.67262163700000E-27
 Fine-structure constant                                    7.29735253760000E-03
 Rydberg constant [1/m]                                     1.09737315685270E+07
 Avogadro constant [1/mol]                                  6.02214179000000E+23
 Boltzmann constant [J/K]                                   1.38065040000000E-23
 Atomic mass unit [kg]                                      1.66053878200000E-27
 Bohr radius [m]                                            5.29177208590000E-11

 *** Conversion factors ***

 [u] -> [a.u.]                                              1.82288848426455E+03
 [Angstrom] -> [Bohr] = [a.u.]                              1.88972613288564E+00
 [a.u.] = [Bohr] -> [Angstrom]                              5.29177208590000E-01
 [a.u.] -> [s]                                              2.41888432650478E-17
 [a.u.] -> [fs]                                             2.41888432650478E-02
 [a.u.] -> [J]                                              4.35974393937059E-18
 [a.u.] -> [N]                                              8.23872205491840E-08
 [a.u.] -> [K]                                              3.15774647902944E+05
 [a.u.] -> [kJ/mol]                                         2.62549961709828E+03
 [a.u.] -> [kcal/mol]                                       6.27509468713739E+02
 [a.u.] -> [Pa]                                             2.94210107994716E+13
 [a.u.] -> [bar]                                            2.94210107994716E+08
 [a.u.] -> [atm]                                            2.90362800883016E+08
 [a.u.] -> [eV]                                             2.72113838565563E+01
 [a.u.] -> [Hz]                                             6.57968392072181E+15
 [a.u.] -> [1/cm] (wave numbers)                            2.19474631370540E+05
 [a.u./Bohr**2] -> [1/cm]                                   5.14048714338585E+03
 

 CELL| Volume [angstrom^3]:                                          3375.000000
 CELL| Vector a [angstrom]:      15.000     0.000     0.000   |a| =    15.000000
 CELL| Vector b [angstrom]:       0.000    15.000     0.000   |b| =    15.000000
 CELL| Vector c [angstrom]:       0.000     0.000    15.000   |c| =    15.000000
 CELL| Angle (b,c), alpha [degree]:                                    90.000000
 CELL| Angle (a,c), beta  [degree]:                                    90.000000
 CELL| Angle (a,b), gamma [degree]:                                    90.000000
 CELL| Numerically orthorhombic:                                             YES
 CELL| Periodicity                                                           XYZ

 CELL_REF| Volume [angstrom^3]:                                      3375.000000
 CELL_REF| Vector a [angstrom    15.000     0.000     0.000   |a| =    15.000000
 CELL_REF| Vector b [angstrom     0.000    15.000     0.000   |b| =    15.000000
 CELL_REF| Vector c [angstrom     0.000     0.000    15.000   |c| =    15.000000
 CELL_REF| Angle (b,c), alpha [degree]:                                90.000000
 CELL_REF| Angle (a,c), beta  [degree]:                                90.000000
 CELL_REF| Angle (a,b), gamma [degree]:                                90.000000
 CELL_REF| Numerically orthorhombic:                                         YES
 CELL_REF| Periodicity                                                       XYZ

 GENERATE|  Preliminary Number of Bonds generated:                             0
 GENERATE|  Achieved consistency in connectivity generation.


                  #####   #####        #     #   #     #       #          
                 #     # #     #      #    ##### #     #   # #####  ####  
                 #     # #           #       #   ###   #       #   #    # 
                 #     #  #####     #        #   #  #  #   #   #   ###### 
                 #   # #       #   #         #   #   # #   #   #   #      
                 #    #  #     #  #          #   #  #  # # #   #    #   # 
                  #### #  #####  #           #   ###   ##  #   #     ###  

                                     g-xTB   
                                 Version 0.0                       
                            Johann V. Pototschnig                  

                tblite provider: SAVE
                tblite source revision: 15915c9435644eb257178ca8f8bf7220c38b1a84
                g-xTB support: enabled

 xTB| Parameter file                                             xTB1_parameters
 xTB| Basis expansion STO-NG                                                   6
 xTB| Basis expansion STO-NG for Hydrogen                                      4
 xTB| Repulsive pair potential accuracy                               0.1000E-09
 xTB| Repulsive enhancement factor                                      0.000000
 xTB| Halogen interaction potential                                            T
 xTB| Halogen interaction potential cutoff radius                         20.000
 xTB| Nonbonded interactions                                                   F
 xTB| vdW potential type:                                              DFTD3(BJ)
 xTB| D3 Dispersion: Parameter                                         dftd3.dat
 xTB| Huckel constants ks kp kd                        1.850     2.250     2.000
 xTB| Huckel constants ksp k2sh                                  2.080     2.850
 xTB| Mataga-Nishimoto exponent                                            2.000
 xTB| Repulsion potential exponent                                         1.500
 xTB| Coordination number scaling kcn(s) kcn(p) kc     0.006    -0.003    -0.005
 xTB| Electronegativity scaling                                           -0.007
 xTB| Halogen potential scaling kxr kx2                          1.300     0.440
 xTB| SCC mixer:                                                       TBLITE
 xTB| tblite accuracy:                                                 1.000E-01
 xTB| tblite SCC mixer damping:                                            0.400
 xTB| tblite SCC mixer iterations:                                           300
 xTB| tblite SCC mixer memory:                                               300
 xTB| tblite SCC mixer solver:                                         GVD
 xTB| tblite SCC mixer omega0:                                         1.000E-02
 xTB| tblite SCC mixer min weight:                                     1.000E+00
 xTB| tblite SCC mixer max weight:                                     1.000E+05
 xTB| tblite SCC mixer weight factor:                                  1.000E-02




 ATOMIC KIND INFORMATION

  1. Atomic kind: O                                     Number of atoms:       1

     Orbital Basis Set                                                 O _STO-6G

       Number of orbital shell sets:                                           2
       Number of orbital shells:                                               2
       Number of primitive Cartesian functions:                               12
       Number of Cartesian basis functions:                                    4
       Number of spherical basis functions:                                    4
       Norm type:                                                              3

       Normalised Cartesian orbitals:

                        Set   Shell   Orbital            Exponent    Coefficient

                          1       1    1s                3.483595      -1.313024
                                                         2.859866       1.114872
                                                         0.740681       0.294549
                                                         0.344927       0.081390
                                                         0.261979       0.039458
                                                         0.094616       0.012363

                          2       1    2px              37.641471       1.474721
                                                         9.713089       1.794175
                                                         3.137177       1.303626
                                                         1.121381       0.633327
                                                         0.398078       0.183090
                                                         0.123048       0.019124
                          2       1    2py              37.641471       1.474721
                                                         9.713089       1.794175
                                                         3.137177       1.303626
                                                         1.121381       0.633327
                                                         0.398078       0.183090
                                                         0.123048       0.019124
                          2       1    2pz              37.641471       1.474721
                                                         9.713089       1.794175
                                                         3.137177       1.303626
                                                         1.121381       0.633327
                                                         0.398078       0.183090
                                                         0.123048       0.019124

     AE Potential information for                                         Oxygen

       Description:                                       Bare Coulomb Potential
                                                             Valence charge only

       Gaussian exponent of the core charge distribution:               3.753049
       Electronic configuration (s p d ...):                       2   4   0   0

  2. Atomic kind: H                                     Number of atoms:       2

     Orbital Basis Set                                                 H _STO-8G

       Number of orbital shell sets:                                           1
       Number of orbital shells:                                               1
       Number of primitive Cartesian functions:                                8
       Number of Cartesian basis functions:                                    1
       Number of spherical basis functions:                                    1
       Norm type:                                                              3

       Normalised Cartesian orbitals:

                        Set   Shell   Orbital            Exponent    Coefficient

                          1       1    1s              337.005012       0.038636
                                                        53.310531       0.064369
                                                        12.208253       0.119184
                                                         3.418827       0.179125
                                                         1.108790       0.225727
                                                         0.478718       0.127521
                                                         0.212137       0.089380
                                                         0.069058      -0.000553

     AE Potential information for                                       Hydrogen

       Description:                                       Bare Coulomb Potential
                                                              Full atomic charge

       Gaussian exponent of the core charge distribution:              12.500000
       Electronic configuration (s p d ...):                       1   0   0   0


 MOLECULE KIND INFORMATION


 All atoms are their own molecule, skipping detailed information


 TOTAL NUMBERS AND MAXIMUM NUMBERS

  Total number of            - Atomic kinds:                                   2
                             - Atoms:                                          3
                             - Shell sets:                                     4
                             - Shells:                                         4
                             - Primitive Cartesian functions:                 28
                             - Cartesian basis functions:                      6
                             - Spherical basis functions:                      6

  Maximum angular momentum of the orbital basis functions:                     1


 MODULE QUICKSTEP: ATOMIC COORDINATES IN ANGSTROM

   Atom Kind Element         X             Y             Z       Z(eff)     Mass
      1    1 O     8      0.000000      0.000000      0.000000   6.0000  15.9994
      2    2 H     1      0.758602      0.000000      0.504284   1.0000   1.0079
      3    2 H     1     -0.758602      0.000000      0.504284   1.0000   1.0079



 SCF PARAMETERS         Density guess:                                     MOPAC
                        --------------------------------------------------------
                        max_scf:                                             300
                        max_scf_history:                                       0
                        max_diis:                                              4
                        --------------------------------------------------------
                        eps_scf:                                        1.00E-10
                        eps_scf_history:                                0.00E+00
                        eps_diis:                                       1.00E-01
                        eps_eigval:                                     1.00E-05
                        --------------------------------------------------------
                        level_shift [a.u.]:                             0.000000
                        added MOs                                         2    0
                        --------------------------------------------------------
                        Mixing method:                           DIRECT_P_MIXING
                        --------------------------------------------------------
                        No outer SCF

 PW_GRID| Information for grid number                                          1
 PW_GRID| Cutoff [a.u.]                                                      1.0
 PW_GRID| spherical cutoff:                                                   NO
 PW_GRID|   Bounds   1             -7       7                Points:          15
 PW_GRID|   Bounds   2             -7       7                Points:          15
 PW_GRID|   Bounds   3             -7       7                Points:          15
 PW_GRID| Volume element (a.u.^3)   6.748         Volume (a.u.^3)     22775.6292
 PW_GRID| Grid span                                                    FULLSPACE

 POISSON| Solver                                                        PERIODIC
 POISSON| Periodicity                                                        XYZ

 RS_GRID| Information for grid number                                          1
 RS_GRID|   Bounds   1             -7       7                Points:          15
 RS_GRID|   Bounds   2             -7       7                Points:          15
 RS_GRID|   Bounds   3             -7       7                Points:          15

 Extrapolation method: initial_guess

 Number of electrons:                                                          8
 Number of occupied orbitals:                                                  4
 Number of molecular orbitals:                                                 6

 Number of orbital functions:                                                  6
 Number of independent orbital functions:                                      6


 SCF WAVEFUNCTION OPTIMIZATION

  Step     Update method      Time    Convergence         Total energy    Change
  ------------------------------------------------------------------------------
     1 GXTB-Raw    0.10E+01    0.0     0.75485126       -76.4161718446 -7.64E+01
     2 GXTB-Simple 0.20E+00    0.0     0.06505606       -76.4314074858 -1.52E-02
     3 GXTB-Simple 0.20E+00    0.0     0.04484187       -76.4390261205 -7.62E-03
     4 GXTB-FDIIS  0.10E+01    0.0     0.09983403       -76.4467818008 -7.76E-03
     5 GXTB-FDIIS  0.10E+01    0.0     0.01077057       -76.4468764825 -9.47E-05
     6 GXTB-FDIIS  0.10E+01    0.0     0.00160387       -76.4468778955 -1.41E-06
     7 GXTB-FDIIS  0.10E+01    0.0     0.00011899       -76.4468778990 -3.55E-09
     8 GXTB-FDIIS  0.10E+01    0.0     0.00000754       -76.4468778990 -5.07E-12
     9 GXTB-FDIIS  0.10E+01    0.0     0.00000128       -76.4468778990 -5.54E-13
    10 GXTB-FDIIS  0.10E+01    0.0     0.00000011       -76.4468778990  0.00E+00
    11 GXTB-FDIIS  0.10E+01    0.0     8.5961E-11       -76.4468778990  1.42E-14

  *** SCF run converged in    11 steps ***


  Core Hamiltonian energy:                                     -6.32576305939431
  Repulsive potential energy:                                   0.41022086028339
  Electrostatic energy:                                         0.14703845856456
  Self-consistent dispersion energy:                           -0.00003907236215
  Non-self consistent dispersion energy:                        0.00000009665358
  Correction for halogen bonding:                               0.00000000000000

  Total energy:                                               -76.44687789902204


 MULLIKEN POPULATION ANALYSIS

  # Atom   Element   Kind        Atomic population                    Net charge
       1     O          1                 6.662277                     -0.662277
       2     H          2                 0.668862                      0.331138
       3     H          2                 0.668862                      0.331138
 # Total charge                           8.000000                      0.000000


 tblite reference CLI check
 Executable: tblite
 Method:     gxtb
 Guess:      auto
 Solver:     gvd
 Spin-pol.:  F
 Grad file:  H2O_stress_L15_cli.grad
 JSON file:  H2O_stress_L15_cli.json
 Log file:   H2O_stress_L15_cli.log
 Energy CP2K/CLI/absdiff:   -7.644687789902E+01   -7.644687789858E+01    4.419149490786E-10
 Gradient diff sum/max:    8.280905488681E-08    2.070731942166E-08
 Virial diff sum/max:    7.767412773103E-08    5.825865505293E-08

 ENERGY| Total FORCE_EVAL ( QS ) energy [hartree]            -76.446877899022041

 -------------------------------------------------------------------------------
 ----                             MULTIGRID INFO                            ----
 -------------------------------------------------------------------------------
 total grid count     :           420              cutoff [a.u.]            1.00

 PW_GRID| Information for grid number                                          2
 PW_GRID| Cutoff [a.u.]                                                      1.0
 PW_GRID| spherical cutoff:                                                   NO
 PW_GRID|   Bounds   1             -7       7                Points:          15
 PW_GRID|   Bounds   2             -7       7                Points:          15
 PW_GRID|   Bounds   3             -7       7                Points:          15
 PW_GRID| Volume element (a.u.^3)   6.748         Volume (a.u.^3)     22775.7096
 PW_GRID| Grid span                                                    FULLSPACE

 POISSON| Solver                                                        PERIODIC
 POISSON| Periodicity                                                        XYZ

 RS_GRID| Information for grid number                                          2
 RS_GRID|   Bounds   1             -7       7                Points:          15
 RS_GRID|   Bounds   2             -7       7                Points:          15
 RS_GRID|   Bounds   3             -7       7                Points:          15

 Parameters for the always stable predictor-corrector (ASPC) method:

  ASPC order: 0

  B(1) =   1.000000

 Extrapolation method: ASPC

 Number of electrons:                                                          8
 Number of occupied orbitals:                                                  4
 Number of molecular orbitals:                                                 6

 Number of orbital functions:                                                  6
 Number of independent orbital functions:                                      6


 SCF WAVEFUNCTION OPTIMIZATION

  Step     Update method      Time    Convergence         Total energy    Change
  ------------------------------------------------------------------------------
     1 GXTB-Raw    0.10E+01    0.0     0.00000276       -76.4468782013 -7.64E+01
     2 GXTB-Simple 0.20E+00    0.0     0.00000031       -76.4468782013 -2.42E-13
     3 GXTB-Simple 0.20E+00    0.0     0.00000025       -76.4468782013 -1.42E-13
     4 GXTB-FDIIS  0.10E+01    0.0     0.00000114       -76.4468782013 -2.70E-13
     5 GXTB-FDIIS  0.10E+01    0.0     0.00000006       -76.4468782013 -1.42E-14
     6 GXTB-FDIIS  0.10E+01    0.0     0.00000003       -76.4468782013  0.00E+00
     7 GXTB-FDIIS  0.10E+01    0.0     4.8648E-10       -76.4468782013  1.42E-14
     8 GXTB-FDIIS  0.10E+01    0.0     3.7748E-15       -76.4468782013  0.00E+00

  *** SCF run converged in     8 steps ***


  Core Hamiltonian energy:                                     -6.32575996881166
  Repulsive potential energy:                                   0.41021700698765
  Electrostatic energy:                                         0.14703859584521
  Self-consistent dispersion energy:                           -0.00003907267058
  Non-self consistent dispersion energy:                        0.00000009665064
  Correction for halogen bonding:                               0.00000000000000

  Total energy:                                               -76.44687820130932


 MULLIKEN POPULATION ANALYSIS

  # Atom   Element   Kind        Atomic population                    Net charge
       1     O          1                 6.662277                     -0.662277
       2     H          2                 0.668862                      0.331138
       3     H          2                 0.668862                      0.331138
 # Total charge                           8.000000                     -0.000000


 tblite reference CLI check
 Executable: tblite
 Method:     gxtb
 Guess:      auto
 Solver:     gvd
 Spin-pol.:  F
 Grad file:  H2O_stress_L15_cli.grad
 JSON file:  H2O_stress_L15_cli.json
 Log file:   H2O_stress_L15_cli.log
 Energy CP2K/CLI/absdiff:   -7.644687820131E+01   -7.644687820087E+01    4.418581056598E-10
 Gradient diff sum/max:    1.001067478581E-05    2.551723928657E-06
 Virial diff sum/max:    1.474803713104E-01    8.568301060848E-02
 tblite reference CLI deviation exceeded ERROR_LIMIT =   1.0000E-05

 ENERGY| Total FORCE_EVAL ( QS ) energy [hartree]            -76.446878201309318

 -------------------------------------------------------------------------------
 ----                             MULTIGRID INFO                            ----
 -------------------------------------------------------------------------------
 total grid count     :           420              cutoff [a.u.]            1.00

 PW_GRID| Information for grid number                                          3
 PW_GRID| Cutoff [a.u.]                                                      1.0
 PW_GRID| spherical cutoff:                                                   NO
 PW_GRID|   Bounds   1             -7       7                Points:          15
 PW_GRID|   Bounds   2             -7       7                Points:          15
 PW_GRID|   Bounds   3             -7       7                Points:          15
 PW_GRID| Volume element (a.u.^3)   6.748         Volume (a.u.^3)     22775.5489
 PW_GRID| Grid span                                                    FULLSPACE

 POISSON| Solver                                                        PERIODIC
 POISSON| Periodicity                                                        XYZ

 RS_GRID| Information for grid number                                          3
 RS_GRID|   Bounds   1             -7       7                Points:          15
 RS_GRID|   Bounds   2             -7       7                Points:          15
 RS_GRID|   Bounds   3             -7       7                Points:          15

 Parameters for the always stable predictor-corrector (ASPC) method:

  ASPC order: 0

  B(1) =   2.000000
  B(2) =  -1.000000

 Extrapolation method: ASPC

 Number of electrons:                                                          8
 Number of occupied orbitals:                                                  4
 Number of molecular orbitals:                                                 6

 Number of orbital functions:                                                  6
 Number of independent orbital functions:                                      6


 SCF WAVEFUNCTION OPTIMIZATION

  Step     Update method      Time    Convergence         Total energy    Change
  ------------------------------------------------------------------------------
     1 GXTB-Raw    0.10E+01    0.0     0.00000551       -76.4468775967 -7.64E+01
     2 GXTB-Simple 0.20E+00    0.0     0.00000062       -76.4468775967 -9.24E-13
     3 GXTB-Simple 0.20E+00    0.0     0.00000051       -76.4468775967 -5.83E-13
     4 GXTB-FDIIS  0.10E+01    0.0     0.00000227       -76.4468775967 -1.12E-12
     5 GXTB-FDIIS  0.10E+01    0.0     0.00000011       -76.4468775967  0.00E+00
     6 GXTB-FDIIS  0.10E+01    0.0     0.00000005       -76.4468775967  0.00E+00
     7 GXTB-FDIIS  0.10E+01    0.0     9.7299E-10       -76.4468775967  0.00E+00
     8 GXTB-FDIIS  0.10E+01    0.0     1.2323E-14       -76.4468775967 -1.42E-14

  *** SCF run converged in     8 steps ***


  Core Hamiltonian energy:                                     -6.32576614998000
  Repulsive potential energy:                                   0.41022471361001
  Electrostatic energy:                                         0.14703832128618
  Self-consistent dispersion energy:                           -0.00003907205372
  Non-self consistent dispersion energy:                        0.00000009665651
  Correction for halogen bonding:                               0.00000000000000

  Total energy:                                               -76.44687759671098


 MULLIKEN POPULATION ANALYSIS

  # Atom   Element   Kind        Atomic population                    Net charge
       1     O          1                 6.662277                     -0.662277
       2     H          2                 0.668861                      0.331139
       3     H          2                 0.668861                      0.331139
 # Total charge                           8.000000                     -0.000000


 tblite reference CLI check
 Executable: tblite
 Method:     gxtb
 Guess:      auto
 Solver:     gvd
 Spin-pol.:  F
 Grad file:  H2O_stress_L15_cli.grad
 JSON file:  H2O_stress_L15_cli.json
 Log file:   H2O_stress_L15_cli.log
 Energy CP2K/CLI/absdiff:   -7.644687759671E+01   -7.644687759627E+01    4.419717924975E-10
 Gradient diff sum/max:    1.017644936251E-05    2.593165158077E-06
 Virial diff sum/max:    1.474981676640E-01    8.569590458717E-02
 tblite reference CLI deviation exceeded ERROR_LIMIT =   1.0000E-05

 ENERGY| Total FORCE_EVAL ( QS ) energy [hartree]            -76.446877596710976

 -------------------------------------------------------------------------------
 ----                             MULTIGRID INFO                            ----
 -------------------------------------------------------------------------------
 total grid count     :           420              cutoff [a.u.]            1.00

 PW_GRID| Information for grid number                                          4
 PW_GRID| Cutoff [a.u.]                                                      1.0
 PW_GRID| spherical cutoff:                                                   NO
 PW_GRID|   Bounds   1             -7       7                Points:          15
 PW_GRID|   Bounds   2             -7       7                Points:          15
 PW_GRID|   Bounds   3             -7       7                Points:          15
 PW_GRID| Volume element (a.u.^3)   6.748         Volume (a.u.^3)     22775.6292
 PW_GRID| Grid span                                                    FULLSPACE

 POISSON| Solver                                                        PERIODIC
 POISSON| Periodicity                                                        XYZ

 RS_GRID| Information for grid number                                          4
 RS_GRID|   Bounds   1             -7       7                Points:          15
 RS_GRID|   Bounds   2             -7       7                Points:          15
 RS_GRID|   Bounds   3             -7       7                Points:          15

 Parameters for the always stable predictor-corrector (ASPC) method:

  ASPC order: 1

  B(1) =   2.500000
  B(2) =  -2.000000
  B(3) =   0.500000

 Extrapolation method: ASPC

 Number of electrons:                                                          8
 Number of occupied orbitals:                                                  4
 Number of molecular orbitals:                                                 6

 Number of orbital functions:                                                  6
 Number of independent orbital functions:                                      6


 SCF WAVEFUNCTION OPTIMIZATION

  Step     Update method      Time    Convergence         Total energy    Change
  ------------------------------------------------------------------------------
     1 GXTB-Raw    0.10E+01    0.0     0.00000276       -76.4468778990 -7.64E+01
     2 GXTB-Simple 0.20E+00    0.0     0.00000031       -76.4468778990 -2.42E-13
     3 GXTB-Simple 0.20E+00    0.0     0.00000025       -76.4468778990 -1.28E-13
     4 GXTB-FDIIS  0.10E+01    0.0     0.00000114       -76.4468778990 -2.84E-13
     5 GXTB-FDIIS  0.10E+01    0.0     0.00000006       -76.4468778990  0.00E+00
     6 GXTB-FDIIS  0.10E+01    0.0     0.00000003       -76.4468778990  0.00E+00
     7 GXTB-FDIIS  0.10E+01    0.0     4.8648E-10       -76.4468778990 -1.42E-14
     8 GXTB-FDIIS  0.10E+01    0.0     3.2196E-15       -76.4468778990  0.00E+00

  *** SCF run converged in     8 steps ***


  Core Hamiltonian energy:                                     -6.32576305939429
  Repulsive potential energy:                                   0.41022086028339
  Electrostatic energy:                                         0.14703845856455
  Self-consistent dispersion energy:                           -0.00003907236215
  Non-self consistent dispersion energy:                        0.00000009665358
  Correction for halogen bonding:                               0.00000000000000

  Total energy:                                               -76.44687789902191


 MULLIKEN POPULATION ANALYSIS

  # Atom   Element   Kind        Atomic population                    Net charge
       1     O          1                 6.662277                     -0.662277
       2     H          2                 0.668862                      0.331138
       3     H          2                 0.668862                      0.331138
 # Total charge                           8.000000                     -0.000000


 tblite reference CLI check
 Executable: tblite
 Method:     gxtb
 Guess:      auto
 Solver:     gvd
 Spin-pol.:  F
 Grad file:  H2O_stress_L15_cli.grad
 JSON file:  H2O_stress_L15_cli.json
 Log file:   H2O_stress_L15_cli.log
 Energy CP2K/CLI/absdiff:   -7.644687789902E+01   -7.644687789858E+01    4.419433707881E-10
 Gradient diff sum/max:    8.282279347967E-08    2.070731835307E-08
 Virial diff sum/max:    1.474894333665E-01    8.568945757816E-02
 tblite reference CLI deviation exceeded ERROR_LIMIT =   1.0000E-05

 ENERGY| Total FORCE_EVAL ( QS ) energy [hartree]            -76.446877899021914

 -------------------------------------------------------------------------------
 ----                             MULTIGRID INFO                            ----
 -------------------------------------------------------------------------------
 total grid count     :           420              cutoff [a.u.]            1.00

 PW_GRID| Information for grid number                                          5
 PW_GRID| Cutoff [a.u.]                                                      1.0
 PW_GRID| spherical cutoff:                                                   NO
 PW_GRID|   Bounds   1             -7       7                Points:          15
 PW_GRID|   Bounds   2             -7       7                Points:          15
 PW_GRID|   Bounds   3             -7       7                Points:          15
 PW_GRID| Volume element (a.u.^3)   6.748         Volume (a.u.^3)     22775.6292
 PW_GRID| Grid span                                                    FULLSPACE

 POISSON| Solver                                                        PERIODIC
 POISSON| Periodicity                                                        XYZ

 RS_GRID| Information for grid number                                          5
 RS_GRID|   Bounds   1             -7       7                Points:          15
 RS_GRID|   Bounds   2             -7       7                Points:          15
 RS_GRID|   Bounds   3             -7       7                Points:          15

 Parameters for the always stable predictor-corrector (ASPC) method:

  ASPC order: 2

  B(1) =   2.800000
  B(2) =  -2.800000
  B(3) =   1.200000
  B(4) =  -0.200000

 Extrapolation method: ASPC

 Number of electrons:                                                          8
 Number of occupied orbitals:                                                  4
 Number of molecular orbitals:                                                 6

 Number of orbital functions:                                                  6
 Number of independent orbital functions:                                      6


 SCF WAVEFUNCTION OPTIMIZATION

  Step     Update method      Time    Convergence         Total energy    Change
  ------------------------------------------------------------------------------
     1 GXTB-Raw    0.10E+01    0.0     3.2488E-11       -76.4468778990 -7.64E+01

  *** SCF run converged in     1 steps ***


  Core Hamiltonian energy:                                     -6.32576305939429
  Repulsive potential energy:                                   0.41022086028339
  Electrostatic energy:                                         0.14703845856455
  Self-consistent dispersion energy:                           -0.00003907236215
  Non-self consistent dispersion energy:                        0.00000009665358
  Correction for halogen bonding:                               0.00000000000000

  Total energy:                                               -76.44687789902190


 MULLIKEN POPULATION ANALYSIS

  # Atom   Element   Kind        Atomic population                    Net charge
       1     O          1                 6.662277                     -0.662277
       2     H          2                 0.668862                      0.331138
       3     H          2                 0.668862                      0.331138
 # Total charge                           8.000000                      0.000000


 tblite reference CLI check
 Executable: tblite
 Method:     gxtb
 Guess:      auto
 Solver:     gvd
 Spin-pol.:  F
 Grad file:  H2O_stress_L15_cli.grad
 JSON file:  H2O_stress_L15_cli.json
 Log file:   H2O_stress_L15_cli.log
 Energy CP2K/CLI/absdiff:   -7.644687789902E+01   -7.644687789858E+01    4.419291599334E-10
 Gradient diff sum/max:    8.282279347967E-08    2.070731835307E-08
 Virial diff sum/max:    1.474894333665E-01    8.568945757816E-02
 tblite reference CLI deviation exceeded ERROR_LIMIT =   1.0000E-05

 ENERGY| Total FORCE_EVAL ( QS ) energy [hartree]            -76.446877899021899

 -------------------------------------------------------------------------------
 ----                             MULTIGRID INFO                            ----
 -------------------------------------------------------------------------------
 total grid count     :           420              cutoff [a.u.]            1.00

 PW_GRID| Information for grid number                                          6
 PW_GRID| Cutoff [a.u.]                                                      1.0
 PW_GRID| spherical cutoff:                                                   NO
 PW_GRID|   Bounds   1             -7       7                Points:          15
 PW_GRID|   Bounds   2             -7       7                Points:          15
 PW_GRID|   Bounds   3             -7       7                Points:          15
 PW_GRID| Volume element (a.u.^3)   6.748         Volume (a.u.^3)     22775.6292
 PW_GRID| Grid span                                                    FULLSPACE

 POISSON| Solver                                                        PERIODIC
 POISSON| Periodicity                                                        XYZ

 RS_GRID| Information for grid number                                          6
 RS_GRID|   Bounds   1             -7       7                Points:          15
 RS_GRID|   Bounds   2             -7       7                Points:          15
 RS_GRID|   Bounds   3             -7       7                Points:          15

 Parameters for the always stable predictor-corrector (ASPC) method:

  ASPC order: 3

  B(1) =   3.000000
  B(2) =  -3.428571
  B(3) =   1.928571
  B(4) =  -0.571429
  B(5) =   0.071429

 Extrapolation method: ASPC

 Number of electrons:                                                          8
 Number of occupied orbitals:                                                  4
 Number of molecular orbitals:                                                 6

 Number of orbital functions:                                                  6
 Number of independent orbital functions:                                      6


 SCF WAVEFUNCTION OPTIMIZATION

  Step     Update method      Time    Convergence         Total energy    Change
  ------------------------------------------------------------------------------
     1 GXTB-Raw    0.10E+01    0.0     0.00000087       -76.4468778990 -7.64E+01
     2 GXTB-Simple 0.20E+00    0.0     0.00000009       -76.4468778990 -9.95E-14
     3 GXTB-Simple 0.20E+00    0.0     0.00000008       -76.4468778990 -7.11E-14
     4 GXTB-FDIIS  0.10E+01    0.0     0.00000035       -76.4468778990 -1.42E-13
     5 GXTB-FDIIS  0.10E+01    0.0     0.00000001       -76.4468778990 -1.42E-14
     6 GXTB-FDIIS  0.10E+01    0.0     1.6329E-09       -76.4468778990  0.00E+00
     7 GXTB-FDIIS  0.10E+01    0.0     1.9940E-10       -76.4468778990  1.42E-14
     8 GXTB-FDIIS  0.10E+01    0.0     1.2657E-14       -76.4468778990  0.00E+00

  *** SCF run converged in     8 steps ***


  Core Hamiltonian energy:                                     -6.32576305939492
  Repulsive potential energy:                                   0.41022086028963
  Electrostatic energy:                                         0.14703845856487
  Self-consistent dispersion energy:                           -0.00003907236215
  Non-self consistent dispersion energy:                        0.00000009665358
  Correction for halogen bonding:                               0.00000000000000

  Total energy:                                               -76.44687789901697


 MULLIKEN POPULATION ANALYSIS

  # Atom   Element   Kind        Atomic population                    Net charge
       1     O          1                 6.662277                     -0.662277
       2     H          2                 0.668862                      0.331138
       3     H          2                 0.668861                      0.331139
 # Total charge                           8.000000                      0.000000


 tblite reference CLI check
 Executable: tblite
 Method:     gxtb
 Guess:      auto
 Solver:     gvd
 Spin-pol.:  F
 Grad file:  H2O_stress_L15_cli.grad
 JSON file:  H2O_stress_L15_cli.json
 Log file:   H2O_stress_L15_cli.log
 Energy CP2K/CLI/absdiff:   -7.644687789902E+01   -7.644687789858E+01    4.419149490786E-10
 Gradient diff sum/max:    7.978501085585E-06    2.929027290511E-06
 Virial diff sum/max:    1.474950166491E-01    8.568945758345E-02
 tblite reference CLI deviation exceeded ERROR_LIMIT =   1.0000E-05

 ENERGY| Total FORCE_EVAL ( QS ) energy [hartree]            -76.446877899016968

 -------------------------------------------------------------------------------
 ----                             MULTIGRID INFO                            ----
 -------------------------------------------------------------------------------
 total grid count     :           420              cutoff [a.u.]            1.00

 PW_GRID| Information for grid number                                          7
 PW_GRID| Cutoff [a.u.]                                                      1.0
 PW_GRID| spherical cutoff:                                                   NO
 PW_GRID|   Bounds   1             -7       7                Points:          15
 PW_GRID|   Bounds   2             -7       7                Points:          15
 PW_GRID|   Bounds   3             -7       7                Points:          15
 PW_GRID| Volume element (a.u.^3)   6.748         Volume (a.u.^3)     22775.6292
 PW_GRID| Grid span                                                    FULLSPACE

 POISSON| Solver                                                        PERIODIC
 POISSON| Periodicity                                                        XYZ

 RS_GRID| Information for grid number                                          7
 RS_GRID|   Bounds   1             -7       7                Points:          15
 RS_GRID|   Bounds   2             -7       7                Points:          15
 RS_GRID|   Bounds   3             -7       7                Points:          15

 Parameters for the always stable predictor-corrector (ASPC) method:

  ASPC order: 3

  B(1) =   3.000000
  B(2) =  -3.428571
  B(3) =   1.928571
  B(4) =  -0.571429
  B(5) =   0.071429

 Extrapolation method: ASPC

 Number of electrons:                                                          8
 Number of occupied orbitals:                                                  4
 Number of molecular orbitals:                                                 6

 Number of orbital functions:                                                  6
 Number of independent orbital functions:                                      6


 SCF WAVEFUNCTION OPTIMIZATION

  Step     Update method      Time    Convergence         Total energy    Change
  ------------------------------------------------------------------------------
     1 GXTB-Raw    0.10E+01    0.0     0.00000173       -76.4468778990 -7.64E+01
     2 GXTB-Simple 0.20E+00    0.0     0.00000018       -76.4468778990 -4.26E-13
     3 GXTB-Simple 0.20E+00    0.0     0.00000015       -76.4468778990 -2.98E-13
     4 GXTB-FDIIS  0.10E+01    0.0     0.00000070       -76.4468778990 -6.11E-13
     5 GXTB-FDIIS  0.10E+01    0.0     0.00000003       -76.4468778990  0.00E+00
     6 GXTB-FDIIS  0.10E+01    0.0     3.2658E-09       -76.4468778990  1.42E-14
     7 GXTB-FDIIS  0.10E+01    0.0     3.9880E-10       -76.4468778990 -1.42E-14
     8 GXTB-FDIIS  0.10E+01    0.0     1.3545E-14       -76.4468778990  0.00E+00

  *** SCF run converged in     8 steps ***


  Core Hamiltonian energy:                                     -6.32576305939492
  Repulsive potential energy:                                   0.41022086028963
  Electrostatic energy:                                         0.14703845856488
  Self-consistent dispersion energy:                           -0.00003907236215
  Non-self consistent dispersion energy:                        0.00000009665358
  Correction for halogen bonding:                               0.00000000000000

  Total energy:                                               -76.44687789901698


 MULLIKEN POPULATION ANALYSIS

  # Atom   Element   Kind        Atomic population                    Net charge
       1     O          1                 6.662277                     -0.662277
       2     H          2                 0.668861                      0.331139
       3     H          2                 0.668862                      0.331138
 # Total charge                           8.000000                     -0.000000


 tblite reference CLI check
 Executable: tblite
 Method:     gxtb
 Guess:      auto
 Solver:     gvd
 Spin-pol.:  F
 Grad file:  H2O_stress_L15_cli.grad
 JSON file:  H2O_stress_L15_cli.json
 Log file:   H2O_stress_L15_cli.log
 Energy CP2K/CLI/absdiff:   -7.644687789902E+01   -7.644687789858E+01    4.419291599334E-10
 Gradient diff sum/max:    7.978501089258E-06    2.929027291066E-06
 Virial diff sum/max:    1.474950166491E-01    8.568945758345E-02
 tblite reference CLI deviation exceeded ERROR_LIMIT =   1.0000E-05

 ENERGY| Total FORCE_EVAL ( QS ) energy [hartree]            -76.446877899016982

 -------------------------------------------------------------------------------
 ----                             MULTIGRID INFO                            ----
 -------------------------------------------------------------------------------
 total grid count     :           420              cutoff [a.u.]            1.00

 PW_GRID| Information for grid number                                          8
 PW_GRID| Cutoff [a.u.]                                                      1.0
 PW_GRID| spherical cutoff:                                                   NO
 PW_GRID|   Bounds   1             -7       7                Points:          15
 PW_GRID|   Bounds   2             -7       7                Points:          15
 PW_GRID|   Bounds   3             -7       7                Points:          15
 PW_GRID| Volume element (a.u.^3)   6.748         Volume (a.u.^3)     22775.6292
 PW_GRID| Grid span                                                    FULLSPACE

 POISSON| Solver                                                        PERIODIC
 POISSON| Periodicity                                                        XYZ

 RS_GRID| Information for grid number                                          8
 RS_GRID|   Bounds   1             -7       7                Points:          15
 RS_GRID|   Bounds   2             -7       7                Points:          15
 RS_GRID|   Bounds   3             -7       7                Points:          15

 Parameters for the always stable predictor-corrector (ASPC) method:

  ASPC order: 3

  B(1) =   3.000000
  B(2) =  -3.428571
  B(3) =   1.928571
  B(4) =  -0.571429
  B(5) =   0.071429

 Extrapolation method: ASPC

 Number of electrons:                                                          8
 Number of occupied orbitals:                                                  4
 Number of molecular orbitals:                                                 6

 Number of orbital functions:                                                  6
 Number of independent orbital functions:                                      6


 SCF WAVEFUNCTION OPTIMIZATION

  Step     Update method      Time    Convergence         Total energy    Change
  ------------------------------------------------------------------------------
     1 GXTB-Raw    0.10E+01    0.0     0.00000087       -76.4468778990 -7.64E+01
     2 GXTB-Simple 0.20E+00    0.0     0.00000031       -76.4468778990 -4.26E-13
     3 GXTB-Simple 0.20E+00    0.0     0.00000026       -76.4468778990 -3.13E-13
     4 GXTB-FDIIS  0.10E+01    0.0     0.00000134       -76.4468778990 -7.11E-13
     5 GXTB-FDIIS  0.10E+01    0.0     0.00000008       -76.4468778990 -1.42E-14
     6 GXTB-FDIIS  0.10E+01    0.0     2.3894E-09       -76.4468778990  0.00E+00
     7 GXTB-FDIIS  0.10E+01    0.0     5.7404E-10       -76.4468778990  0.00E+00
     8 GXTB-FDIIS  0.10E+01    0.0     9.1218E-12       -76.4468778990  0.00E+00

  *** SCF run converged in     8 steps ***


  Core Hamiltonian energy:                                     -6.32576305938884
  Repulsive potential energy:                                   0.41022086027660
  Electrostatic energy:                                         0.14703845856477
  Self-consistent dispersion energy:                           -0.00003907236215
  Non-self consistent dispersion energy:                        0.00000009665358
  Correction for halogen bonding:                               0.00000000000000

  Total energy:                                               -76.44687789902258


 MULLIKEN POPULATION ANALYSIS

  # Atom   Element   Kind        Atomic population                    Net charge
       1     O          1                 6.662277                     -0.662277
       2     H          2                 0.668862                      0.331138
       3     H          2                 0.668862                      0.331138
 # Total charge                           8.000000                     -0.000000


 tblite reference CLI check
 Executable: tblite
 Method:     gxtb
 Guess:      auto
 Solver:     gvd
 Spin-pol.:  F
 Grad file:  H2O_stress_L15_cli.grad
 JSON file:  H2O_stress_L15_cli.json
 Log file:   H2O_stress_L15_cli.log
 Energy CP2K/CLI/absdiff:   -7.644687789902E+01   -7.644687789858E+01    4.419149490786E-10
 Gradient diff sum/max:    3.508255947063E-07    1.340174100503E-07
 Virial diff sum/max:    1.474898740543E-01    8.568945756602E-02
 tblite reference CLI deviation exceeded ERROR_LIMIT =   1.0000E-05

 ENERGY| Total FORCE_EVAL ( QS ) energy [hartree]            -76.446877899022581

 -------------------------------------------------------------------------------
 ----                             MULTIGRID INFO                            ----
 -------------------------------------------------------------------------------
 total grid count     :           420              cutoff [a.u.]            1.00

 PW_GRID| Information for grid number                                          9
 PW_GRID| Cutoff [a.u.]                                                      1.0
 PW_GRID| spherical cutoff:                                                   NO
 PW_GRID|   Bounds   1             -7       7                Points:          15
 PW_GRID|   Bounds   2             -7       7                Points:          15
 PW_GRID|   Bounds   3             -7       7                Points:          15
 PW_GRID| Volume element (a.u.^3)   6.748         Volume (a.u.^3)     22775.6292
 PW_GRID| Grid span                                                    FULLSPACE

 POISSON| Solver                                                        PERIODIC
 POISSON| Periodicity                                                        XYZ

 RS_GRID| Information for grid number                                          9
 RS_GRID|   Bounds   1             -7       7                Points:          15
 RS_GRID|   Bounds   2             -7       7                Points:          15
 RS_GRID|   Bounds   3             -7       7                Points:          15

 Parameters for the always stable predictor-corrector (ASPC) method:

  ASPC order: 3

  B(1) =   3.000000
  B(2) =  -3.428571
  B(3) =   1.928571
  B(4) =  -0.571429
  B(5) =   0.071429

 Extrapolation method: ASPC

 Number of electrons:                                                          8
 Number of occupied orbitals:                                                  4
 Number of molecular orbitals:                                                 6

 Number of orbital functions:                                                  6
 Number of independent orbital functions:                                      6


 SCF WAVEFUNCTION OPTIMIZATION

  Step     Update method      Time    Convergence         Total energy    Change
  ------------------------------------------------------------------------------
     1 GXTB-Raw    0.10E+01    0.0     0.00000134       -76.4468778990 -7.64E+01
     2 GXTB-Simple 0.20E+00    0.0     0.00000063       -76.4468778990 -1.31E-12
     3 GXTB-Simple 0.20E+00    0.0     0.00000053       -76.4468778990 -9.09E-13
     4 GXTB-FDIIS  0.10E+01    0.0     0.00000273       -76.4468778990 -2.29E-12
     5 GXTB-FDIIS  0.10E+01    0.0     0.00000012       -76.4468778990 -1.42E-14
     6 GXTB-FDIIS  0.10E+01    0.0     9.2104E-13       -76.4468778990  1.42E-14

  *** SCF run converged in     6 steps ***


  Core Hamiltonian energy:                                     -6.32576305938888
  Repulsive potential energy:                                   0.41022086027660
  Electrostatic energy:                                         0.14703845856483
  Self-consistent dispersion energy:                           -0.00003907236215
  Non-self consistent dispersion energy:                        0.00000009665358
  Correction for halogen bonding:                               0.00000000000000

  Total energy:                                               -76.44687789902258


 MULLIKEN POPULATION ANALYSIS

  # Atom   Element   Kind        Atomic population                    Net charge
       1     O          1                 6.662277                     -0.662277
       2     H          2                 0.668862                      0.331138
       3     H          2                 0.668862                      0.331138
 # Total charge                           8.000000                      0.000000


 tblite reference CLI check
 Executable: tblite
 Method:     gxtb
 Guess:      auto
 Solver:     gvd
 Spin-pol.:  F
 Grad file:  H2O_stress_L15_cli.grad
 JSON file:  H2O_stress_L15_cli.json
 Log file:   H2O_stress_L15_cli.log
 Energy CP2K/CLI/absdiff:   -7.644687789902E+01   -7.644687789858E+01    4.419149490786E-10
 Gradient diff sum/max:    3.508255947063E-07    1.340174100503E-07
 Virial diff sum/max:    1.474898740543E-01    8.568945756602E-02
 tblite reference CLI deviation exceeded ERROR_LIMIT =   1.0000E-05

 ENERGY| Total FORCE_EVAL ( QS ) energy [hartree]            -76.446877899022581

 -------------------------------------------------------------------------------
 ----                             MULTIGRID INFO                            ----
 -------------------------------------------------------------------------------
 total grid count     :           420              cutoff [a.u.]            1.00

 PW_GRID| Information for grid number                                         10
 PW_GRID| Cutoff [a.u.]                                                      1.0
 PW_GRID| spherical cutoff:                                                   NO
 PW_GRID|   Bounds   1             -7       7                Points:          15
 PW_GRID|   Bounds   2             -7       7                Points:          15
 PW_GRID|   Bounds   3             -7       7                Points:          15
 PW_GRID| Volume element (a.u.^3)   6.748         Volume (a.u.^3)     22775.7096
 PW_GRID| Grid span                                                    FULLSPACE

 POISSON| Solver                                                        PERIODIC
 POISSON| Periodicity                                                        XYZ

 RS_GRID| Information for grid number                                         10
 RS_GRID|   Bounds   1             -7       7                Points:          15
 RS_GRID|   Bounds   2             -7       7                Points:          15
 RS_GRID|   Bounds   3             -7       7                Points:          15

 Parameters for the always stable predictor-corrector (ASPC) method:

  ASPC order: 3

  B(1) =   3.000000
  B(2) =  -3.428571
  B(3) =   1.928571
  B(4) =  -0.571429
  B(5) =   0.071429

 Extrapolation method: ASPC

 Number of electrons:                                                          8
 Number of occupied orbitals:                                                  4
 Number of molecular orbitals:                                                 6

 Number of orbital functions:                                                  6
 Number of independent orbital functions:                                      6


 SCF WAVEFUNCTION OPTIMIZATION

  Step     Update method      Time    Convergence         Total energy    Change
  ------------------------------------------------------------------------------
     1 GXTB-Raw    0.10E+01    0.0     0.00000067       -76.4468778171 -7.64E+01
     2 GXTB-Simple 0.20E+00    0.0     0.00000031       -76.4468778171 -3.41E-13
     3 GXTB-Simple 0.20E+00    0.0     0.00000026       -76.4468778171 -2.13E-13
     4 GXTB-FDIIS  0.10E+01    0.0     0.00000137       -76.4468778171 -5.68E-13
     5 GXTB-FDIIS  0.10E+01    0.0     0.00000006       -76.4468778171  0.00E+00
     6 GXTB-FDIIS  0.10E+01    0.0     5.2213E-09       -76.4468778171  0.00E+00
     7 GXTB-FDIIS  0.10E+01    0.0     2.8121E-11       -76.4468778171 -1.42E-14

  *** SCF run converged in     7 steps ***


  Core Hamiltonian energy:                                     -6.32576304075013
  Repulsive potential energy:                                   0.41022086052209
  Electrostatic energy:                                         0.14703844486209
  Self-consistent dispersion energy:                           -0.00003907236263
  Non-self consistent dispersion energy:                        0.00000009665358
  Correction for halogen bonding:                               0.00000000000000

  Total energy:                                               -76.44687781708707


 MULLIKEN POPULATION ANALYSIS

  # Atom   Element   Kind        Atomic population                    Net charge
       1     O          1                 6.662277                     -0.662277
       2     H          2                 0.668862                      0.331138
       3     H          2                 0.668862                      0.331138
 # Total charge                           8.000000                     -0.000000


 tblite reference CLI check
 Executable: tblite
 Method:     gxtb
 Guess:      auto
 Solver:     gvd
 Spin-pol.:  F
 Grad file:  H2O_stress_L15_cli.grad
 JSON file:  H2O_stress_L15_cli.json
 Log file:   H2O_stress_L15_cli.log
 Energy CP2K/CLI/absdiff:   -7.644687781709E+01   -7.644687781665E+01    4.419433707881E-10
 Gradient diff sum/max:    1.006652721883E-07    2.967793261144E-08
 Virial diff sum/max:    1.474890155965E-01    8.568945773889E-02
 tblite reference CLI deviation exceeded ERROR_LIMIT =   1.0000E-05

 ENERGY| Total FORCE_EVAL ( QS ) energy [hartree]            -76.446877817087071

 -------------------------------------------------------------------------------
 ----                             MULTIGRID INFO                            ----
 -------------------------------------------------------------------------------
 total grid count     :           420              cutoff [a.u.]            1.00

 PW_GRID| Information for grid number                                         11
 PW_GRID| Cutoff [a.u.]                                                      1.0
 PW_GRID| spherical cutoff:                                                   NO
 PW_GRID|   Bounds   1             -7       7                Points:          15
 PW_GRID|   Bounds   2             -7       7                Points:          15
 PW_GRID|   Bounds   3             -7       7                Points:          15
 PW_GRID| Volume element (a.u.^3)   6.748         Volume (a.u.^3)     22775.5489
 PW_GRID| Grid span                                                    FULLSPACE

 POISSON| Solver                                                        PERIODIC
 POISSON| Periodicity                                                        XYZ

 RS_GRID| Information for grid number                                         11
 RS_GRID|   Bounds   1             -7       7                Points:          15
 RS_GRID|   Bounds   2             -7       7                Points:          15
 RS_GRID|   Bounds   3             -7       7                Points:          15

 Parameters for the always stable predictor-corrector (ASPC) method:

  ASPC order: 3

  B(1) =   3.000000
  B(2) =  -3.428571
  B(3) =   1.928571
  B(4) =  -0.571429
  B(5) =   0.071429

 Extrapolation method: ASPC

 Number of electrons:                                                          8
 Number of occupied orbitals:                                                  4
 Number of molecular orbitals:                                                 6

 Number of orbital functions:                                                  6
 Number of independent orbital functions:                                      6


 SCF WAVEFUNCTION OPTIMIZATION

  Step     Update method      Time    Convergence         Total energy    Change
  ------------------------------------------------------------------------------
     1 GXTB-Raw    0.10E+01    0.0     8.7780E-10       -76.4468779810 -7.64E+01
     2 GXTB-Simple 0.20E+00    0.0     0.00000002       -76.4468779810  0.00E+00
     3 GXTB-Simple 0.20E+00    0.0     0.00000001       -76.4468779810  0.00E+00
     4 GXTB-FDIIS  0.10E+01    0.0     0.00000004       -76.4468779810  0.00E+00
     5 GXTB-FDIIS  0.10E+01    0.0     4.8119E-09       -76.4468779810  0.00E+00
     6 GXTB-FDIIS  0.10E+01    0.0     8.8320E-10       -76.4468779810 -1.42E-14
     7 GXTB-FDIIS  0.10E+01    0.0     1.4670E-11       -76.4468779810  1.42E-14

  *** SCF run converged in     7 steps ***


  Core Hamiltonian energy:                                     -6.32576307803861
  Repulsive potential energy:                                   0.41022086004469
  Electrostatic energy:                                         0.14703847226722
  Self-consistent dispersion energy:                           -0.00003907236167
  Non-self consistent dispersion energy:                        0.00000009665358
  Correction for halogen bonding:                               0.00000000000000

  Total energy:                                               -76.44687798095825


 MULLIKEN POPULATION ANALYSIS

  # Atom   Element   Kind        Atomic population                    Net charge
       1     O          1                 6.662277                     -0.662277
       2     H          2                 0.668862                      0.331138
       3     H          2                 0.668862                      0.331138
 # Total charge                           8.000000                      0.000000


 tblite reference CLI check
 Executable: tblite
 Method:     gxtb
 Guess:      auto
 Solver:     gvd
 Spin-pol.:  F
 Grad file:  H2O_stress_L15_cli.grad
 JSON file:  H2O_stress_L15_cli.json
 Log file:   H2O_stress_L15_cli.log
 Energy CP2K/CLI/absdiff:   -7.644687798096E+01   -7.644687798052E+01    4.419149490786E-10
 Gradient diff sum/max:    6.495257986232E-08    2.075993624923E-08
 Virial diff sum/max:    1.474895233743E-01    8.568945745737E-02
 tblite reference CLI deviation exceeded ERROR_LIMIT =   1.0000E-05

 ENERGY| Total FORCE_EVAL ( QS ) energy [hartree]            -76.446877980958249

 -------------------------------------------------------------------------------
 ----                             MULTIGRID INFO                            ----
 -------------------------------------------------------------------------------
 total grid count     :           420              cutoff [a.u.]            1.00

 PW_GRID| Information for grid number                                         12
 PW_GRID| Cutoff [a.u.]                                                      1.0
 PW_GRID| spherical cutoff:                                                   NO
 PW_GRID|   Bounds   1             -7       7                Points:          15
 PW_GRID|   Bounds   2             -7       7                Points:          15
 PW_GRID|   Bounds   3             -7       7                Points:          15
 PW_GRID| Volume element (a.u.^3)   6.748         Volume (a.u.^3)     22775.6292
 PW_GRID| Grid span                                                    FULLSPACE

 POISSON| Solver                                                        PERIODIC
 POISSON| Periodicity                                                        XYZ

 RS_GRID| Information for grid number                                         12
 RS_GRID|   Bounds   1             -7       7                Points:          15
 RS_GRID|   Bounds   2             -7       7                Points:          15
 RS_GRID|   Bounds   3             -7       7                Points:          15

 Parameters for the always stable predictor-corrector (ASPC) method:

  ASPC order: 3

  B(1) =   3.000000
  B(2) =  -3.428571
  B(3) =   1.928571
  B(4) =  -0.571429
  B(5) =   0.071429

 Extrapolation method: ASPC

 Number of electrons:                                                          8
 Number of occupied orbitals:                                                  4
 Number of molecular orbitals:                                                 6

 Number of orbital functions:                                                  6
 Number of independent orbital functions:                                      6


 SCF WAVEFUNCTION OPTIMIZATION

  Step     Update method      Time    Convergence         Total energy    Change
  ------------------------------------------------------------------------------
     1 GXTB-Raw    0.10E+01    0.0     0.00000054       -76.4468778990 -7.64E+01
     2 GXTB-Simple 0.20E+00    0.0     0.00000021       -76.4468778990 -1.42E-13
     3 GXTB-Simple 0.20E+00    0.0     0.00000017       -76.4468778990 -1.14E-13
     4 GXTB-FDIIS  0.10E+01    0.0     0.00000087       -76.4468778990 -2.42E-13
     5 GXTB-FDIIS  0.10E+01    0.0     0.00000002       -76.4468778990  0.00E+00
     6 GXTB-FDIIS  0.10E+01    0.0     3.8639E-09       -76.4468778990  1.42E-14
     7 GXTB-FDIIS  0.10E+01    0.0     1.1269E-11       -76.4468778990 -1.42E-14

  *** SCF run converged in     7 steps ***


  Core Hamiltonian energy:                                     -6.32576305939136
  Repulsive potential energy:                                   0.41022086028045
  Electrostatic energy:                                         0.14703845856444
  Self-consistent dispersion energy:                           -0.00003907236215
  Non-self consistent dispersion energy:                        0.00000009665358
  Correction for halogen bonding:                               0.00000000000000

  Total energy:                                               -76.44687789902230


 MULLIKEN POPULATION ANALYSIS

  # Atom   Element   Kind        Atomic population                    Net charge
       1     O          1                 6.662277                     -0.662277
       2     H          2                 0.668862                      0.331138
       3     H          2                 0.668862                      0.331138
 # Total charge                           8.000000                      0.000000


 tblite reference CLI check
 Executable: tblite
 Method:     gxtb
 Guess:      auto
 Solver:     gvd
 Spin-pol.:  F
 Grad file:  H2O_stress_L15_cli.grad
 JSON file:  H2O_stress_L15_cli.json
 Log file:   H2O_stress_L15_cli.log
 Energy CP2K/CLI/absdiff:   -7.644687789902E+01   -7.644687789858E+01    4.419291599334E-10
 Gradient diff sum/max:    5.421286284335E-07    2.296642983283E-07
 Virial diff sum/max:    1.474895424398E-01    8.568945757413E-02
 tblite reference CLI deviation exceeded ERROR_LIMIT =   1.0000E-05

 ENERGY| Total FORCE_EVAL ( QS ) energy [hartree]            -76.446877899022297

 -------------------------------------------------------------------------------
 ----                             MULTIGRID INFO                            ----
 -------------------------------------------------------------------------------
 total grid count     :           420              cutoff [a.u.]            1.00

 PW_GRID| Information for grid number                                         13
 PW_GRID| Cutoff [a.u.]                                                      1.0
 PW_GRID| spherical cutoff:                                                   NO
 PW_GRID|   Bounds   1             -7       7                Points:          15
 PW_GRID|   Bounds   2             -7       7                Points:          15
 PW_GRID|   Bounds   3             -7       7                Points:          15
 PW_GRID| Volume element (a.u.^3)   6.748         Volume (a.u.^3)     22775.6292
 PW_GRID| Grid span                                                    FULLSPACE

 POISSON| Solver                                                        PERIODIC
 POISSON| Periodicity                                                        XYZ

 RS_GRID| Information for grid number                                         13
 RS_GRID|   Bounds   1             -7       7                Points:          15
 RS_GRID|   Bounds   2             -7       7                Points:          15
 RS_GRID|   Bounds   3             -7       7                Points:          15

 Parameters for the always stable predictor-corrector (ASPC) method:

  ASPC order: 3

  B(1) =   3.000000
  B(2) =  -3.428571
  B(3) =   1.928571
  B(4) =  -0.571429
  B(5) =   0.071429

 Extrapolation method: ASPC

 Number of electrons:                                                          8
 Number of occupied orbitals:                                                  4
 Number of molecular orbitals:                                                 6

 Number of orbital functions:                                                  6
 Number of independent orbital functions:                                      6


 SCF WAVEFUNCTION OPTIMIZATION

  Step     Update method      Time    Convergence         Total energy    Change
  ------------------------------------------------------------------------------
     1 GXTB-Raw    0.10E+01    0.0     0.00000109       -76.4468778990 -7.64E+01
     2 GXTB-Simple 0.20E+00    0.0     0.00000042       -76.4468778990 -5.97E-13
     3 GXTB-Simple 0.20E+00    0.0     0.00000035       -76.4468778990 -3.98E-13
     4 GXTB-FDIIS  0.10E+01    0.0     0.00000174       -76.4468778990 -9.66E-13
     5 GXTB-FDIIS  0.10E+01    0.0     0.00000004       -76.4468778990 -1.42E-14
     6 GXTB-FDIIS  0.10E+01    0.0     4.3132E-13       -76.4468778990  0.00E+00

  *** SCF run converged in     6 steps ***


  Core Hamiltonian energy:                                     -6.32576305939140
  Repulsive potential energy:                                   0.41022086028045
  Electrostatic energy:                                         0.14703845856443
  Self-consistent dispersion energy:                           -0.00003907236215
  Non-self consistent dispersion energy:                        0.00000009665358
  Correction for halogen bonding:                               0.00000000000000

  Total energy:                                               -76.44687789902230


 MULLIKEN POPULATION ANALYSIS

  # Atom   Element   Kind        Atomic population                    Net charge
       1     O          1                 6.662277                     -0.662277
       2     H          2                 0.668862                      0.331138
       3     H          2                 0.668862                      0.331138
 # Total charge                           8.000000                     -0.000000


 tblite reference CLI check
 Executable: tblite
 Method:     gxtb
 Guess:      auto
 Solver:     gvd
 Spin-pol.:  F
 Grad file:  H2O_stress_L15_cli.grad
 JSON file:  H2O_stress_L15_cli.json
 Log file:   H2O_stress_L15_cli.log
 Energy CP2K/CLI/absdiff:   -7.644687789902E+01   -7.644687789858E+01    4.419291599334E-10
 Gradient diff sum/max:    5.421286284330E-07    2.296642983281E-07
 Virial diff sum/max:    1.474895424398E-01    8.568945757413E-02
 tblite reference CLI deviation exceeded ERROR_LIMIT =   1.0000E-05

 ENERGY| Total FORCE_EVAL ( QS ) energy [hartree]            -76.446877899022297

 -------------------------------------------------------------------------------
 ----                             MULTIGRID INFO                            ----
 -------------------------------------------------------------------------------
 total grid count     :           420              cutoff [a.u.]            1.00

 PW_GRID| Information for grid number                                         14
 PW_GRID| Cutoff [a.u.]                                                      1.0
 PW_GRID| spherical cutoff:                                                   NO
 PW_GRID|   Bounds   1             -7       7                Points:          15
 PW_GRID|   Bounds   2             -7       7                Points:          15
 PW_GRID|   Bounds   3             -7       7                Points:          15
 PW_GRID| Volume element (a.u.^3)   6.748         Volume (a.u.^3)     22775.6292
 PW_GRID| Grid span                                                    FULLSPACE

 POISSON| Solver                                                        PERIODIC
 POISSON| Periodicity                                                        XYZ

[...]
     5 GXTB-FDIIS  0.10E+01    0.0     0.00000011       -76.4468777629  0.00E+00
     6 GXTB-FDIIS  0.10E+01    0.0     0.00000005       -76.4468777629  0.00E+00
     7 GXTB-FDIIS  0.10E+01    0.0     5.3241E-11       -76.4468777629  0.00E+00

  *** SCF run converged in     7 steps ***


  Core Hamiltonian energy:                                     -6.32576471704189
  Repulsive potential energy:                                   0.41022252855665
  Electrostatic energy:                                         0.14703853757612
  Self-consistent dispersion energy:                           -0.00003907228200
  Non-self consistent dispersion energy:                        0.00000009664947
  Correction for halogen bonding:                               0.00000000000000

  Total energy:                                               -76.44687776293553


 MULLIKEN POPULATION ANALYSIS

  # Atom   Element   Kind        Atomic population                    Net charge
       1     O          1                 6.662277                     -0.662277
       2     H          2                 0.668861                      0.331139
       3     H          2                 0.668861                      0.331139
 # Total charge                           8.000000                      0.000000


 tblite reference CLI check
 Executable: tblite
 Method:     gxtb
 Guess:      auto
 Solver:     gvd
 Spin-pol.:  F
 Grad file:  H2O_stress_L15_cli.grad
 JSON file:  H2O_stress_L15_cli.json
 Log file:   H2O_stress_L15_cli.log
 Energy CP2K/CLI/absdiff:   -7.644687776294E+01   -7.644687776249E+01    4.419433707881E-10
 Gradient diff sum/max:    4.734591582504E-06    1.488512789444E-06
 Virial diff sum/max:    1.474926376374E-01    8.569190861441E-02
 tblite reference CLI deviation exceeded ERROR_LIMIT =   1.0000E-05

 ENERGY| Total FORCE_EVAL ( QS ) energy [hartree]            -76.446877762935529

 -------------------------------------------------------------------------------
 ----                             MULTIGRID INFO                            ----
 -------------------------------------------------------------------------------
 total grid count     :           420              cutoff [a.u.]            1.00

 PW_GRID| Information for grid number                                         20
 PW_GRID| Cutoff [a.u.]                                                      1.0
 PW_GRID| spherical cutoff:                                                   NO
 PW_GRID|   Bounds   1             -7       7                Points:          15
 PW_GRID|   Bounds   2             -7       7                Points:          15
 PW_GRID|   Bounds   3             -7       7                Points:          15
 PW_GRID| Volume element (a.u.^3)   6.748         Volume (a.u.^3)     22775.6292
 PW_GRID| Grid span                                                    FULLSPACE

 POISSON| Solver                                                        PERIODIC
 POISSON| Periodicity                                                        XYZ

 RS_GRID| Information for grid number                                         20
 RS_GRID|   Bounds   1             -7       7                Points:          15
 RS_GRID|   Bounds   2             -7       7                Points:          15
 RS_GRID|   Bounds   3             -7       7                Points:          15

 Parameters for the always stable predictor-corrector (ASPC) method:

  ASPC order: 3

  B(1) =   3.000000
  B(2) =  -3.428571
  B(3) =   1.928571
  B(4) =  -0.571429
  B(5) =   0.071429

 Extrapolation method: ASPC

 Number of electrons:                                                          8
 Number of occupied orbitals:                                                  4
 Number of molecular orbitals:                                                 6

 Number of orbital functions:                                                  6
 Number of independent orbital functions:                                      6


 SCF WAVEFUNCTION OPTIMIZATION

  Step     Update method      Time    Convergence         Total energy    Change
  ------------------------------------------------------------------------------
     1 GXTB-Raw    0.10E+01    0.0     0.00000090       -76.4468778990 -7.64E+01
     2 GXTB-Simple 0.20E+00    0.0     0.00000026       -76.4468778990 -1.42E-13
     3 GXTB-Simple 0.20E+00    0.0     0.00000021       -76.4468778990 -8.53E-14
     4 GXTB-FDIIS  0.10E+01    0.0     0.00000099       -76.4468778990 -2.13E-13
     5 GXTB-FDIIS  0.10E+01    0.0     0.00000006       -76.4468778990  0.00E+00
     6 GXTB-FDIIS  0.10E+01    0.0     0.00000003       -76.4468778990  0.00E+00
     7 GXTB-FDIIS  0.10E+01    0.0     2.6647E-11       -76.4468778990  0.00E+00

  *** SCF run converged in     7 steps ***


  Core Hamiltonian energy:                                     -6.32576305939432
  Repulsive potential energy:                                   0.41022086028339
  Electrostatic energy:                                         0.14703845856458
  Self-consistent dispersion energy:                           -0.00003907236215
  Non-self consistent dispersion energy:                        0.00000009665358
  Correction for halogen bonding:                               0.00000000000000

  Total energy:                                               -76.44687789902204


 MULLIKEN POPULATION ANALYSIS

  # Atom   Element   Kind        Atomic population                    Net charge
       1     O          1                 6.662277                     -0.662277
       2     H          2                 0.668862                      0.331138
       3     H          2                 0.668862                      0.331138
 # Total charge                           8.000000                      0.000000


 tblite reference CLI check
 Executable: tblite
 Method:     gxtb
 Guess:      auto
 Solver:     gvd
 Spin-pol.:  F
 Grad file:  H2O_stress_L15_cli.grad
 JSON file:  H2O_stress_L15_cli.json
 Log file:   H2O_stress_L15_cli.log
 Energy CP2K/CLI/absdiff:   -7.644687789902E+01   -7.644687789858E+01    4.419149490786E-10
 Gradient diff sum/max:    8.280905488681E-08    2.070731942166E-08
 Virial diff sum/max:    1.474892694849E-01    8.568945757846E-02
 tblite reference CLI deviation exceeded ERROR_LIMIT =   1.0000E-05

 ENERGY| Total FORCE_EVAL ( QS ) energy [hartree]            -76.446877899022041
 DEBUG| Numerical pv_virial [a.u.]
 DEBUG|                   0.085689396391      0.000000001007     -0.000000002014
 DEBUG|                   0.000000001007     -0.023225373556      0.000000000000
 DEBUG|                  -0.000000002014      0.000000000000      0.038574416278

 DEBUG| Analytical pv_virial [a.u.]
 DEBUG|                   0.085689399320     -0.000000000000     -0.000000000000
 DEBUG|                  -0.000000000000     -0.023225375379     -0.000000000000
 DEBUG|                  -0.000000000000     -0.000000000000      0.038574417112

 DEBUG| Difference pv_virial [a.u.]
 DEBUG|                  -0.000000002929      0.000000001007     -0.000000002014
 DEBUG|                   0.000000001007      0.000000001822      0.000000000000
 DEBUG|                  -0.000000002014      0.000000000000     -0.000000000835
 DEBUG| Sum of differences                                        0.000000011628

 DEBUG| Relative error pv_virial
 DEBUG| Threshold value for error check [a.u.]                    1.00000000E-05
 DEBUG|                          -0.00 %                 - %                 - %
 DEBUG|                              - %             -0.00 %                 - %
 DEBUG|                              - %                 - %             -0.00 %
 DEBUG| Maximum accepted error                                            0.20 %

 -------------------------------------------------------------------------------
 -                                                                             -
 -                                DBCSR STATISTICS                             -
 -                                                                             -
 -------------------------------------------------------------------------------
 COUNTER                                    TOTAL       BLAS       SMM       ACC
 flops     1 x     6 x     1                 3168     100.0%      0.0%      0.0%     
 flops     1 x     1 x     6                 5760     100.0%      0.0%      0.0%     
 flops     4 x     6 x     1                 6336     100.0%      0.0%      0.0%     
 flops     1 x     6 x     4                 6336     100.0%      0.0%      0.0%     
 flops     4 x     1 x     6                 7680     100.0%      0.0%      0.0%     
 flops     1 x     4 x     6                 7680     100.0%      0.0%      0.0%     
 flops     4 x     6 x     4                12672     100.0%      0.0%      0.0%     
 flops     4 x     4 x     6                30720     100.0%      0.0%      0.0%     
 flops inhomo. stacks                           0       0.0%      0.0%      0.0%
 flops total                        80.352000E+03     100.0%      0.0%      0.0%
 flops max/rank                     80.352000E+03     100.0%      0.0%      0.0%
 matmuls inhomo. stacks                         0       0.0%      0.0%      0.0%
 matmuls total                               1554     100.0%      0.0%      0.0%
 number of processed stacks                   904     100.0%      0.0%      0.0%
 average stack size                                     1.7       0.0       0.0
 marketing flops                    74.592000E+03
 -------------------------------------------------------------------------------
 # multiplications                            226
 max memory usage/rank               9.876025E+09
 # max total images/rank                        1
 # max 3D layers                                1
 # MPI messages exchanged                       0
 -------------------------------------------------------------------------------
 -                                                                             -
 -                      DBCSR MESSAGE PASSING PERFORMANCE                      -
 -                                                                             -
 -------------------------------------------------------------------------------
 ROUTINE             CALLS      AVE VOLUME [Bytes]
 MP_Bcast                9                     12.
 MP_Allreduce         1033                      9.
 MP_Alltoall          5866                    254.
 MP_ISend              904                     78.
 MP_IRecv              904                     78.
 -------------------------------------------------------------------------------

 -------------------------------------------------------------------------------
 -                                                                             -
 -                          OFFLOAD MEMPOOL STATISTICS                         -
 -                                                                             -
 -------------------------------------------------------------------------------
 Memory consumption                Number of allocations  Used [MiB]  Size [MiB]
 Host                                                  1           0           0
 -------------------------------------------------------------------------------

 MEMORY| Estimated peak process memory [MiB]                                 117

 -------------------------------------------------------------------------------
 ----                             MULTIGRID INFO                            ----
 -------------------------------------------------------------------------------
 total grid count     :           420              cutoff [a.u.]            1.00

 -------------------------------------------------------------------------------
 -                                                                             -
 -                         MESSAGE PASSING PERFORMANCE                         -
 -                                                                             -
 -------------------------------------------------------------------------------

 ROUTINE             CALLS      AVE VOLUME [Bytes]
 MP_Group               20
 MP_Bcast              280                     26.
 MP_Allreduce         4585                     50.
 MP_Sync               160
 MP_comm_split         140
 -------------------------------------------------------------------------------


 -------------------------------------------------------------------------------
 -                                                                             -
 -                           R E F E R E N C E S                               -
 -                                                                             -
 -------------------------------------------------------------------------------
 
 CP2K version 2026.2 (Development Version), the CP2K developers group (2026).
 CP2K is freely available from https://www.cp2k.org/ .
 
 M. Iannuzzi, J. Wilhelm, F. Stein, A. Bussy, H. Elgabarty, D. Golze, A. Hehn, 
 M. Graml, S. Marek, B. Sertcan Gökmen, C. Schran, H. Forbert, R. Z. 
 Khaliullin, A. Kozhevnikov, M. Taillefumier, R. Meli, V. V. Rybkin, M. Brehm, 
 R. Schade, O. Schütt, J. V. Pototschnig, H. Mirhosseini, A. Knüpfer, D. Marx, 
 M. Krack, J. Hutter, T. D. Kühne.
 J. Phys. Chem. B 130, 1237-1310 (2026).
 The CP2K Program Package Made Simple.
 https://doi.org/10.1021/acs.jpcb.5c05851

 A. Katbashev, M. Stahn, T. Rose, V. Alizadeh, M. Friede, C. Plett, P. 
 Steinbach, S. Ehlert.
 J. Phys. Chem. A 129, 2667-2682 (2025).
 Overview on Building Blocks and Applications of Efficient and Robust Extended 
 Tight Binding.
 https://doi.org/10.1021/acs.jpca.4c08263

 T. D. Kühne, M. Iannuzzi, M. Del Ben, V. V. Rybkin, P. Seewald, F. Stein, T. 
 Laino, R. Z. Khaliullin, O. Schütt, F. Schiffmann, D. Golze, J. Wilhelm, S. 
 Chulkov, M. H. Bani-Hashemian, V. Weber, U. Borstnik, M. Taillefumier, A. S. 
 Jakobovits, A. Lazzaro, H. Pabst, T. Müller, R. Schade, M. Guidon, S. 
 Andermatt, N. Holmberg, G. K. Schenter, A. Hehn, A. Bussy, F. Belleflamme, G. 
 Tabacchi, A. Glöß, M. Lass, I. Bethune, C. J. Mundy, C. Plessl, M. Watkins, 
 J. VandeVondele, M. Krack, J. Hutter.
 J. Chem. Phys. 152, 194103 (2020).
 CP2K: An electronic structure and molecular dynamics software package - 
 Quickstep: Efficient and accurate electronic structure calculations.
 https://doi.org/10.1063/5.0007045

 P. Pracht, E. Caldeweyher, S. Ehlert, S. Grimme.
 ChemRxiv, (2019).
 A Robust Non-Self-Consistent Tight-Binding Quantum Chemistry Method for large 
 Molecules.
 https://doi.org/10.26434/chemrxiv.8326202.v1

 S. Grimme, C. Bannwarth, P. Shushkov.
 J. Chem. Theory Comput. 13, 1989 (2017).
 A Robust and Accurate Tight-Binding Quantum Chemical Method for Structures, 
 Vibrational Frequencies, and Noncovalent Interactions of Large Molecular 
 Systems Parametrized for All spd-Block Elements (Z = 1-86).
 https://doi.org/10.1021/acs.jctc.7b00118

 O. Schuett, P. Messmer, J. Hutter, J. VandeVondele.
 Electronic Structure Calculations on Graphics Processing Units, 173-190 (2016).
 GPU-Accelerated Sparse Matrix-Matrix Multiplication for Linear Scaling Density 
 Functional Theory.
 https://doi.org/10.1002/9781118670712.ch8

 U. Borstnik, J. VandeVondele, V. Weber, J. Hutter.
 Parallel Comput. 40, 47-58 (2014).
 Sparse matrix multiplication: The distributed block-compressed sparse row 
 library.
 https://doi.org/10.1016/j.parco.2014.03.012

 T. D. Kühne, M. Krack, F. R. Mohamed, M. Parrinello.
 Phys. Rev. Lett. 98, 066401 (2007).
 Efficient and accurate Car-Parrinello-like approach to Born-Oppenheimer 
 molecular dynamics.
 https://doi.org/10.1103/PhysRevLett.98.066401

 M. Frigo, S. G. Johnson.
 Proc. IEEE 93, 216-231 (2005).
 The design and implementation of FFTW3.
 https://doi.org/10.1109/JPROC.2004.840301

 J. Kolafa.
 J. Comput. Chem. 25, 335-342 (2004).
 Time-reversible always stable predictor-corrector method for molecular dynamics 
 of polarizable molecules.
 https://doi.org/10.1002/jcc.10385


 -------------------------------------------------------------------------------
 -                                                                             -
 -                                T I M I N G                                  -
 -                                                                             -
 -------------------------------------------------------------------------------
 SUBROUTINE                       CALLS  ASD         SELF TIME        TOTAL TIME
                                MAXIMUM       AVERAGE  MAXIMUM  AVERAGE  MAXIMUM
 CP2K                                 1  1.0    0.004    0.004    0.461    0.461
 qs_energies                         20  2.0    0.000    0.000    0.434    0.434
 tb_reference_cli_compare            20  3.0    0.215    0.215    0.215    0.215
 scf_env_do_scf                      20  3.0    0.000    0.000    0.138    0.138
 scf_env_do_scf_inner_loop          140  4.1    0.015    0.015    0.138    0.138
 qs_scf_new_mos                     140  5.1    0.002    0.002    0.099    0.099
 calculate_dm_sparse                159  6.1    0.000    0.000    0.070    0.070
 cp_dbcsr_plus_fm_fm_t              160  7.1    0.001    0.001    0.070    0.070
 dbcsr_multiply_generic             226  8.0    0.004    0.004    0.064    0.064
 init_scf_run                        20  3.0    0.000    0.000    0.042    0.042
 scf_env_initial_rho_setup           20  4.0    0.000    0.000    0.039    0.039
 wfi_extrapolate                     20  5.0    0.001    0.001    0.038    0.038
 build_tblite_matrices               21  4.0    0.031    0.031    0.036    0.036
 qs_energies_init_hamiltonians       20  3.0    0.000    0.000    0.035    0.035
 make_m2s                           452  9.0    0.003    0.003    0.034    0.034
 qs_forces                            1  2.0    0.000    0.000    0.032    0.032
 dbcsr_complete_redistribute        612  8.2    0.011    0.011    0.027    0.027
 copy_dbcsr_to_fm                   226  6.2    0.002    0.002    0.026    0.026
 cp_dbcsr_sm_fm_multiply             66  6.0    0.000    0.000    0.025    0.025
 rebuild_ks_matrix                  160  5.8    0.000    0.000    0.020    0.020
 build_tblite_ks_matrix             160  6.8    0.016    0.016    0.020    0.020
 eigensolver                        140  6.1    0.005    0.005    0.019    0.019
 copy_fm_to_dbcsr                   386  7.9    0.001    0.001    0.019    0.019
 qs_ks_update_qs_env                159  4.8    0.000    0.000    0.019    0.019
 multiply_cannon                    226  9.0    0.010    0.010    0.016    0.016
 make_images                        452 10.0    0.004    0.004    0.015    0.015
 qs_env_rebuild_pw_env               22  3.1    0.000    0.000    0.013    0.013
 pw_env_rebuild                      20  4.0    0.001    0.001    0.013    0.013
 cp_dbcsr_sm_fm_multiply_core        66  7.0    0.000    0.000    0.013    0.013
 cp_fm_syevd                        140  7.1    0.000    0.000    0.012    0.012
 dbcsr_finalize                    3404  8.7    0.003    0.003    0.012    0.012
 dbcsr_create_new                  5114  9.4    0.009    0.009    0.011    0.011
 -------------------------------------------------------------------------------

 The number of warnings for this run is : 1
 
 -------------------------------------------------------------------------------
  **** **** ******  **  PROGRAM ENDED AT                 2026-07-21 16:10:16.324
 ***** ** ***  *** **   PROGRAM RAN ON                                     terok
 **    ****   ******    PROGRAM RAN BY                                  kuehne88
 ***** **    ** ** **   PROGRAM PROCESS ID                               1031038
  **** **  *******  **  PROGRAM STOPPED IN /home/kuehne88/work/h2o-molecular-lim
                                           it-20260721/stress_debug_8_50/raw/H2O
                                           _stress_L15
