 DBCSR| CPU Multiplication driver                                           XSMM (U)
 DBCSR| Multrec recursion limit                                              512 (U)
 DBCSR| Multiplication stack size                                           1000 (D)
 DBCSR| Maximum elements for images                                    UNLIMITED (U)
 DBCSR| Multiplicative factor virtual images                                   1 (U)
 DBCSR| Use multiplication densification                                       T (D)
 DBCSR| Multiplication size stacks                                             3 (U)
 DBCSR| Use memory pool for CPU allocation                                     F (U)
 DBCSR| Number of 3D layers                                               SINGLE (U)
 DBCSR| Use MPI memory allocation                                              F (U)
 DBCSR| Use RMA algorithm                                                      F (U)
 DBCSR| Use Communication thread                                               T (U)
 DBCSR| Communication thread load                                             87 (D)
 DBCSR| MPI: My process id                                                     0
 DBCSR| MPI: Number of processes                                               1
 DBCSR| OMP: Current number of threads                                         1
 DBCSR| OMP: Max number of threads                                             1
 DBCSR| Split modifier for TAS multiplication algorithm                  1.0E+00 (U)


  **** **** ******  **  PROGRAM STARTED AT               2026-05-23 22:46:24.563
 ***** ** ***  *** **   PROGRAM STARTED ON                            spark-c86c
 **    ****   ******    PROGRAM STARTED BY                              kuehne88
 ***** **    ** ** **   PROGRAM PROCESS ID                               2242168
  **** **  *******  **  PROGRAM STARTED IN /home/kuehne88/periodic-gfn2-benchmar
                                           ks/X23b/runs/crystal_sp/k111/GFN1/ura
                                           cil_GFN1_k111_sp

 CP2K| version string:                 CP2K version 2026.1 (Development Version)
 CP2K| source code revision number:                                   0622d442e4
 CP2K| cp2kflags: omp fftw3 libxc parallel scalapack mpi_f08 xsmm spglib libdftd
 CP2K|            4 dftd4_v3 mctc-lib tblite
 CP2K| is freely available from                            https://www.cp2k.org/
 CP2K| Program compiled at                                   2026-05-23 22:05:08
 CP2K| Program compiled on                                            spark-c86c
 CP2K| Program compiled for                                              aarch64
 CP2K| Data directory path    /home/kuehne88/cp2k-master-tblite-20260523/install
 CP2K| Input file name                                   uracil_GFN1_k111_sp.inp

 GLOBAL| Force Environment number                                              1
 GLOBAL| Basis set file name                                           BASIS_SET
 GLOBAL| Potential file name                                           POTENTIAL
 GLOBAL| MM Potential file name                                     MM_POTENTIAL
 GLOBAL| Coordinate file name                                      __STD_INPUT__
 GLOBAL| Method name                                                        CP2K
 GLOBAL| Project name                                    uracil_GFN1_k111_energy
 GLOBAL| Run type                                                         ENERGY
 GLOBAL| FFT library                                                       FFTW3
 GLOBAL| Diagonalization library                                       ScaLAPACK
 GLOBAL| Cholesky decomposition library                                ScaLAPACK
 GLOBAL| DGEMM library                                                      BLAS
 GLOBAL| Direct generalized diagonalization requested                          F
 GLOBAL| Orthonormality check for eigenvectors                          DISABLED
 GLOBAL| Matrix multiplication library                                 ScaLAPACK
 GLOBAL| All-to-all communication in single precision                          F
 GLOBAL| FFTs using library dependent lengths                                  F
 GLOBAL| Grid backend                                                       AUTO
 GLOBAL| Global print level                                                  LOW
 GLOBAL| MPI I/O enabled                                                       T
 GLOBAL| Total number of message passing processes                             1
 GLOBAL| Number of distributed systems (nodes)                                 1
 GLOBAL| Number of threads for this process                                    1
 GLOBAL| This output is from process                                           0
 GLOBAL| OpenMP stack size per thread (OMP_STACKSIZE)                    default
 GLOBAL| CPU model name                                                  UNKNOWN
 GLOBAL| CPUID                                                              2200
 GLOBAL| Compiled for CPUID                                                 2000

 *** HINT in environment.F:970 :: The compiler target flags (arm_arch64)   ***
 *** used to build this binary cannot exploit all extensions of this CPU   ***
 *** model (arm_sve256). Consider compiler target flags as part of FCFLAGS ***
 *** and CFLAGS (ARCH file).                                               ***


 MEMORY| system memory details [Kb]
 MEMORY|                        rank 0           min           max       average
 MEMORY| MemTotal            125508532     125508532     125508532     125508532
 MEMORY| MemFree             105204976     105204976     105204976     105204976
 MEMORY| Buffers                866736        866736        866736        866736
 MEMORY| Cached               13305472      13305472      13305472      13305472
 MEMORY| Slab                  1566916       1566916       1566916       1566916
 MEMORY| SReclaimable           890196        890196        890196        890196
 MEMORY| MemLikelyFree       120267380     120267380     120267380     120267380


 GENERATE|  Preliminary Number of Bonds generated:                             0
 GENERATE|  Achieved consistency in connectivity generation.


                  #####   #####        #     #   #     #       #          
                 #     # #     #      #    ##### #     #   # #####  ####  
                 #     # #           #       #   ###   #       #   #    # 
                 #     #  #####     #        #   #  #  #   #   #   ###### 
                 #   # #       #   #         #   #   # #   #   #   #      
                 #    #  #     #  #          #   #  #  # # #   #    #   # 
                  #### #  #####  #           #   ###   ##  #   #     ###  

                                   GFN1-xTB  
                                 Version 0.0                       
                            Johann V. Pototschnig                  



 TOTAL NUMBERS AND MAXIMUM NUMBERS

  Total number of            - Atomic kinds:                                   4
                             - Atoms:                                         48
                             - Shell sets:                                    96
                             - Shells:                                        96
                             - Primitive Cartesian functions:                560
                             - Cartesian basis functions:                    160
                             - Spherical basis functions:                    160

  Maximum angular momentum of the orbital basis functions:                     1


 SCF PARAMETERS         Density guess:                                     MOPAC
                        --------------------------------------------------------
                        max_scf:                                             300
                        max_scf_history:                                       0
                        max_diis:                                              4
                        --------------------------------------------------------
                        eps_scf:                                        1.00E-09
                        eps_scf_history:                                0.00E+00
                        eps_diis:                                       1.00E-01
                        eps_eigval:                                     1.00E-05
                        --------------------------------------------------------
                        level_shift [a.u.]:                             0.000000
                        added MOs                                        76    0
                        --------------------------------------------------------
                        Mixing method:                           DIRECT_P_MIXING
                        --------------------------------------------------------
                        Smear method:                                FERMI_DIRAC
                        Electronic temperature [K]:                        300.0
                        Electronic temperature [a.u.]:                  9.50E-04
                        Accuracy threshold:                             1.00E-06
                        --------------------------------------------------------
                        No outer SCF

 Extrapolation method: initial_guess

 Number of electrons:                                                        168
 Number of occupied orbitals:                                                 84
 Number of molecular orbitals:                                               160

 Number of orbital functions:                                                160
 Number of independent orbital functions:                                    160


 SCF WAVEFUNCTION OPTIMIZATION

  Step     Update method      Time    Convergence         Total energy    Change
  ------------------------------------------------------------------------------
     1 TBLite/Diag 0.40E+00    0.0     1.82529547      -103.5298760787 -1.04E+02
     2 TBLite/Diag 0.40E+00    0.0     0.31150912      -105.4233773028 -1.89E+00
     3 TBLite/Diag 0.40E+00    0.0     0.05498608      -105.4395854167 -1.62E-02
     4 TBLite/Diag 0.40E+00    0.0     0.02681936      -105.4419771187 -2.39E-03
     5 TBLite/Diag 0.40E+00    0.0     0.01456693      -105.4437227815 -1.75E-03
     6 TBLite/Diag 0.40E+00    0.0     0.00240507      -105.4438006112 -7.78E-05
     7 TBLite/Diag 0.40E+00    0.0     0.00127750      -105.4438080663 -7.46E-06
     8 TBLite/Diag 0.40E+00    0.0     0.00043797      -105.4438088666 -8.00E-07
     9 TBLite/Diag 0.40E+00    0.0     0.00010033      -105.4438089094 -4.28E-08
    10 TBLite/Diag 0.40E+00    0.0     0.00003411      -105.4438089196 -1.03E-08
    11 TBLite/Diag 0.40E+00    0.0     0.00000199      -105.4438089196  1.42E-12
    12 TBLite/Diag 0.40E+00    0.0     0.00000204      -105.4438089196 -7.92E-12
    13 TBLite/Diag 0.40E+00    0.0     0.00000100      -105.4438089196 -5.90E-12
    14 TBLite/Diag 0.40E+00    0.0     0.00000031      -105.4438089196  1.42E-14
    15 TBLite/Diag 0.40E+00    0.0     0.00000013      -105.4438089196 -2.27E-13
    16 TBLite/Diag 0.40E+00    0.0     1.0551E-09      -105.4438089196  8.53E-14
    17 TBLite/Diag 0.40E+00    0.0     6.8259E-10      -105.4438089196 -1.28E-13

  *** SCF run converged in    17 steps ***


  Core Hamiltonian energy:                                   -107.68474786232689
  Repulsive potential energy:                                   1.80516584168275
  Electrostatic energy:                                         0.53160224999784
  Self-consistent dispersion energy:                            0.00000000000000
  Non-self consistent dispersion energy:                       -0.09582914899992
  Correction for halogen bonding:                               0.00000000000000
  Electronic entropic energy:                                  -0.00000000000000
  Fermi energy:                                                -0.33397808492796

  Total energy:                                              -105.44380891964622
  Total energy (extrapolated to T->0):                       -105.44380891964622

 ENERGY| Total FORCE_EVAL ( QS ) energy [hartree]           -105.443808919646216

 -------------------------------------------------------------------------------
 -                                                                             -
 -                                DBCSR STATISTICS                             -
 -                                                                             -
 -------------------------------------------------------------------------------
 COUNTER                                    TOTAL       BLAS       SMM       ACC
 flops inhomo. stacks                           0       0.0%      0.0%      0.0%
 flops total                         0.000000E+00       0.0%      0.0%      0.0%
 flops max/rank                      0.000000E+00       0.0%      0.0%      0.0%
 matmuls inhomo. stacks                         0       0.0%      0.0%      0.0%
 matmuls total                                  0       0.0%      0.0%      0.0%
 number of processed stacks                     0       0.0%      0.0%      0.0%
 average stack size                                     0.0       0.0       0.0
 marketing flops                     0.000000E+00
 -------------------------------------------------------------------------------
 -                                                                             -
 -                      DBCSR MESSAGE PASSING PERFORMANCE                      -
 -                                                                             -
 -------------------------------------------------------------------------------
 ROUTINE             CALLS      AVE VOLUME [Bytes]
 MP_Bcast                1                     12.
 MP_Allreduce           19                     21.
 MP_Alltoall          2088                 155128.
 -------------------------------------------------------------------------------

 -------------------------------------------------------------------------------
 -                                                                             -
 -                          OFFLOAD MEMPOOL STATISTICS                         -
 -                                                                             -
 -------------------------------------------------------------------------------
 Memory consumption                Number of allocations  Used [MiB]  Size [MiB]
 Device                                                1           0           0
 Host                                                  1           0           0
 -------------------------------------------------------------------------------

 MEMORY| Estimated peak process memory [MiB]                                 211

 -------------------------------------------------------------------------------
 -                                                                             -
 -                         MESSAGE PASSING PERFORMANCE                         -
 -                                                                             -
 -------------------------------------------------------------------------------

 ROUTINE             CALLS      AVE VOLUME [Bytes]
 MP_Group                1
 MP_Bcast              641                      7.
 MP_Allreduce         4867                    605.
 MP_Sync                 1
 MP_Wait               520
 MP_ISend              728                  29263.
 MP_IRecv              728                  29263.
 -------------------------------------------------------------------------------


 -------------------------------------------------------------------------------
 -                                                                             -
 -                           R E F E R E N C E S                               -
 -                                                                             -
 -------------------------------------------------------------------------------
 
 CP2K version 2026.1 (Development Version), the CP2K developers group (2026).
 CP2K is freely available from https://www.cp2k.org/ .
 
 M. Iannuzzi, J. Wilhelm, F. Stein, A. Bussy, H. Elgabarty, D. Golze, A. Hehn, 
 M. Graml, S. Marek, B. Sertcan Gökmen, C. Schran, H. Forbert, R. Z. 
 Khaliullin, A. Kozhevnikov, M. Taillefumier, R. Meli, V. V. Rybkin, M. Brehm, 
 R. Schade, O. Schütt, J. V. Pototschnig, H. Mirhosseini, A. Knüpfer, D. Marx, 
 M. Krack, J. Hutter, T. D. Kühne.
 J. Phys. Chem. B 130, 1237-1310 (2026).
 The CP2K Program Package Made Simple.
 https://doi.org/10.1021/acs.jpcb.5c05851

 A. Katbashev, M. Stahn, T. Rose, V. Alizadeh, M. Friede, C. Plett, P. 
 Steinbach, S. Ehlert.
 J. Phys. Chem. A 129, 2667-2682 (2025).
 Overview on Building Blocks and Applications of Efficient and Robust Extended 
 Tight Binding.
 https://doi.org/10.1021/acs.jpca.4c08263

 T. D. Kühne, M. Iannuzzi, M. Del Ben, V. V. Rybkin, P. Seewald, F. Stein, T. 
 Laino, R. Z. Khaliullin, O. Schütt, F. Schiffmann, D. Golze, J. Wilhelm, S. 
 Chulkov, M. H. Bani-Hashemian, V. Weber, U. Borstnik, M. Taillefumier, A. S. 
 Jakobovits, A. Lazzaro, H. Pabst, T. Müller, R. Schade, M. Guidon, S. 
 Andermatt, N. Holmberg, G. K. Schenter, A. Hehn, A. Bussy, F. Belleflamme, G. 
 Tabacchi, A. Glöß, M. Lass, I. Bethune, C. J. Mundy, C. Plessl, M. Watkins, 
 J. VandeVondele, M. Krack, J. Hutter.
 J. Chem. Phys. 152, 194103 (2020).
 CP2K: An electronic structure and molecular dynamics software package - 
 Quickstep: Efficient and accurate electronic structure calculations.
 https://doi.org/10.1063/5.0007045

 P. Pracht, E. Caldeweyher, S. Ehlert, S. Grimme.
 ChemRxiv, (2019).
 A Robust Non-Self-Consistent Tight-Binding Quantum Chemistry Method for large 
 Molecules.
 https://doi.org/10.26434/chemrxiv.8326202.v1

 S. Grimme, C. Bannwarth, P. Shushkov.
 J. Chem. Theory Comput. 13, 1989 (2017).
 A Robust and Accurate Tight-Binding Quantum Chemical Method for Structures, 
 Vibrational Frequencies, and Noncovalent Interactions of Large Molecular 
 Systems Parametrized for All spd-Block Elements (Z = 1-86).
 https://doi.org/10.1021/acs.jctc.7b00118

 O. Schuett, P. Messmer, J. Hutter, J. VandeVondele.
 Electronic Structure Calculations on Graphics Processing Units, 173-190 (2016).
 GPU-Accelerated Sparse Matrix-Matrix Multiplication for Linear Scaling Density 
 Functional Theory.
 https://doi.org/10.1002/9781118670712.ch8

 A. Heinecke, G. Henry, M. Hutchinson, H. Pabst.
 Proceedings of Intl. Supercomputing Conference, 981-991 (2016).
 LIBXSMM: Accelerating Small Matrix Multiplications by Runtime Code Generation.
 https://doi.org/10.1109/SC.2016.83

 U. Borstnik, J. VandeVondele, V. Weber, J. Hutter.
 Parallel Comput. 40, 47-58 (2014).
 Sparse matrix multiplication: The distributed block-compressed sparse row 
 library.
 https://doi.org/10.1016/j.parco.2014.03.012

 M. Frigo, S. G. Johnson.
 Proc. IEEE 93, 216-231 (2005).
 The design and implementation of FFTW3.
 https://doi.org/10.1109/JPROC.2004.840301

 N. D. Mermin.
 Phys. Rev. 137, A1441-A1443 (1965).
 Thermal Properties of the Inhomogeneous Electron Gas.
 https://doi.org/10.1103/PhysRev.137.A1441


 -------------------------------------------------------------------------------
 -                                                                             -
 -                                T I M I N G                                  -
 -                                                                             -
 -------------------------------------------------------------------------------
 SUBROUTINE                       CALLS  ASD         SELF TIME        TOTAL TIME
                                MAXIMUM       AVERAGE  MAXIMUM  AVERAGE  MAXIMUM
 CP2K                                 1  1.0    0.002    0.002    0.853    0.853
 qs_energies                          1  2.0    0.000    0.000    0.846    0.846
 scf_env_do_scf                       1  3.0    0.000    0.000    0.717    0.717
 scf_env_do_scf_inner_loop           17  4.0    0.065    0.065    0.717    0.717
 qs_scf_new_mos_kp                   17  5.0    0.000    0.000    0.308    0.308
 do_general_diag_kp                  17  6.0    0.001    0.001    0.308    0.308
 qs_ks_update_qs_env                 17  5.0    0.000    0.000    0.185    0.185
 rebuild_ks_matrix                   17  6.0    0.000    0.000    0.128    0.128
 build_tblite_ks_matrix              17  7.0    0.118    0.118    0.128    0.128
 evaluate_core_matrix_traces         34  5.5    0.000    0.000    0.115    0.115
 calculate_ptrace_kp                 34  6.5    0.000    0.000    0.115    0.115
 dbcsr_dot                         1870  7.5    0.112    0.112    0.114    0.114
 qs_energies_init_hamiltonians        1  3.0    0.000    0.000    0.097    0.097
 cp_cfm_geeig                        17  7.0    0.000    0.000    0.085    0.085
 build_tblite_matrices                1  4.0    0.059    0.059    0.082    0.082
 cp_dbcsr_alloc_block_from_nbl      345  5.3    0.058    0.058    0.074    0.074
 kpoint_density_transform            17  7.0    0.000    0.000    0.067    0.067
 copy_dbcsr_to_fm                   125  6.5    0.000    0.000    0.060    0.060
 scf_env_density_mixing              18  5.0    0.000    0.000    0.060    0.060
 cp_sm_mix                          935  6.0    0.059    0.059    0.060    0.060
 cp_cfm_heevd                        17  8.0    0.000    0.000    0.056    0.056
 cp_cfm_heevd_base                   17  9.0    0.056    0.056    0.056    0.056
 dbcsr_complete_redistribute        159  7.8    0.045    0.045    0.053    0.053
 rskp_transform                      35  6.9    0.051    0.051    0.051    0.051
 write_kpoints_restart               17  5.0    0.000    0.000    0.031    0.031
 dbcsr_desymmetrize_deep            195  7.3    0.020    0.020    0.027    0.027
 dbcsr_copy                        1904  6.5    0.015    0.015    0.025    0.025
 copy_fm_to_dbcsr                    34  8.0    0.000    0.000    0.025    0.025
 qs_diis_b_calc_err_kp               16  7.0    0.001    0.001    0.024    0.024
 transform_dmat                      17  8.0    0.024    0.024    0.024    0.024
 parallel_gemm_cfm                   64  8.0    0.000    0.000    0.023    0.023
 parallel_gemm_cfm_gemm              64  9.0    0.000    0.000    0.023    0.023
 cp_cfm_gemm                         64 10.0    0.023    0.023    0.023    0.023
 cp_cfm_triangular_multiply          51  8.0    0.021    0.021    0.021    0.021
 -------------------------------------------------------------------------------

 The number of warnings for this run is : 0
 
 -------------------------------------------------------------------------------
  **** **** ******  **  PROGRAM ENDED AT                 2026-05-23 22:46:25.753
 ***** ** ***  *** **   PROGRAM RAN ON                                spark-c86c
 **    ****   ******    PROGRAM RAN BY                                  kuehne88
 ***** **    ** ** **   PROGRAM PROCESS ID                               2242168
  **** **  *******  **  PROGRAM STOPPED IN /home/kuehne88/periodic-gfn2-benchmar
                                           ks/X23b/runs/crystal_sp/k111/GFN1/ura
                                           cil_GFN1_k111_sp
