 DBCSR| CPU Multiplication driver                                           XSMM (U)
 DBCSR| Multrec recursion limit                                              512 (U)
 DBCSR| Multiplication stack size                                           1000 (D)
 DBCSR| Maximum elements for images                                    UNLIMITED (U)
 DBCSR| Multiplicative factor virtual images                                   1 (U)
 DBCSR| Use multiplication densification                                       T (D)
 DBCSR| Multiplication size stacks                                             3 (U)
 DBCSR| Use memory pool for CPU allocation                                     F (U)
 DBCSR| Number of 3D layers                                               SINGLE (U)
 DBCSR| Use MPI memory allocation                                              F (U)
 DBCSR| Use RMA algorithm                                                      F (U)
 DBCSR| Use Communication thread                                               T (U)
 DBCSR| Communication thread load                                             87 (D)
 DBCSR| MPI: My process id                                                     0
 DBCSR| MPI: Number of processes                                               1
 DBCSR| OMP: Current number of threads                                         1
 DBCSR| OMP: Max number of threads                                             1
 DBCSR| Split modifier for TAS multiplication algorithm                  1.0E+00 (U)


  **** **** ******  **  PROGRAM STARTED AT               2026-05-23 22:46:18.325
 ***** ** ***  *** **   PROGRAM STARTED ON                            spark-c86c
 **    ****   ******    PROGRAM STARTED BY                              kuehne88
 ***** **    ** ** **   PROGRAM PROCESS ID                               2222448
  **** **  *******  **  PROGRAM STARTED IN /home/kuehne88/periodic-gfn2-benchmar
                                           ks/X23b/runs/molecule_geoopt/GFN1/imi
                                           dazole_GFN1_mol_geoopt

 CP2K| version string:                 CP2K version 2026.1 (Development Version)
 CP2K| source code revision number:                                   0622d442e4
 CP2K| cp2kflags: omp fftw3 libxc parallel scalapack mpi_f08 xsmm spglib libdftd
 CP2K|            4 dftd4_v3 mctc-lib tblite
 CP2K| is freely available from                            https://www.cp2k.org/
 CP2K| Program compiled at                                   2026-05-23 22:05:08
 CP2K| Program compiled on                                            spark-c86c
 CP2K| Program compiled for                                              aarch64
 CP2K| Data directory path    /home/kuehne88/cp2k-master-tblite-20260523/install
 CP2K| Input file name                             imidazole_GFN1_mol_geoopt.inp

 GLOBAL| Force Environment number                                              1
 GLOBAL| Basis set file name                                           BASIS_SET
 GLOBAL| Potential file name                                           POTENTIAL
 GLOBAL| MM Potential file name                                     MM_POTENTIAL
 GLOBAL| Coordinate file name                                      __STD_INPUT__
 GLOBAL| Method name                                                        CP2K
 GLOBAL| Project name                                  imidazole_GFN1_mol_geoopt
 GLOBAL| Run type                                                        GEO_OPT
 GLOBAL| FFT library                                                       FFTW3
 GLOBAL| Diagonalization library                                       ScaLAPACK
 GLOBAL| Cholesky decomposition library                                ScaLAPACK
 GLOBAL| DGEMM library                                                      BLAS
 GLOBAL| Direct generalized diagonalization requested                          F
 GLOBAL| Orthonormality check for eigenvectors                          DISABLED
 GLOBAL| Matrix multiplication library                                 ScaLAPACK
 GLOBAL| All-to-all communication in single precision                          F
 GLOBAL| FFTs using library dependent lengths                                  F
 GLOBAL| Grid backend                                                       AUTO
 GLOBAL| Global print level                                                  LOW
 GLOBAL| MPI I/O enabled                                                       T
 GLOBAL| Total number of message passing processes                             1
 GLOBAL| Number of distributed systems (nodes)                                 1
 GLOBAL| Number of threads for this process                                    1
 GLOBAL| This output is from process                                           0
 GLOBAL| OpenMP stack size per thread (OMP_STACKSIZE)                    default
 GLOBAL| CPU model name                                                  UNKNOWN
 GLOBAL| CPUID                                                              2200
 GLOBAL| Compiled for CPUID                                                 2000

 *** HINT in environment.F:970 :: The compiler target flags (arm_arch64)   ***
 *** used to build this binary cannot exploit all extensions of this CPU   ***
 *** model (arm_sve256). Consider compiler target flags as part of FCFLAGS ***
 *** and CFLAGS (ARCH file).                                               ***


 MEMORY| system memory details [Kb]
 MEMORY|                        rank 0           min           max       average
 MEMORY| MemTotal            125508532     125508532     125508532     125508532
 MEMORY| MemFree             105621516     105621516     105621516     105621516
 MEMORY| Buffers                865972        865972        865972        865972
 MEMORY| Cached               13214812      13214812      13214812      13214812
 MEMORY| Slab                  1565168       1565168       1565168       1565168
 MEMORY| SReclaimable           888300        888300        888300        888300
 MEMORY| MemLikelyFree       120590600     120590600     120590600     120590600


 GENERATE|  Preliminary Number of Bonds generated:                             0
 GENERATE|  Achieved consistency in connectivity generation.


                  #####   #####        #     #   #     #       #          
                 #     # #     #      #    ##### #     #   # #####  ####  
                 #     # #           #       #   ###   #       #   #    # 
                 #     #  #####     #        #   #  #  #   #   #   ###### 
                 #   # #       #   #         #   #   # #   #   #   #      
                 #    #  #     #  #          #   #  #  # # #   #    #   # 
                  #### #  #####  #           #   ###   ##  #   #     ###  

                                   GFN1-xTB  
                                 Version 0.0                       
                            Johann V. Pototschnig                  



 TOTAL NUMBERS AND MAXIMUM NUMBERS

  Total number of            - Atomic kinds:                                   3
                             - Atoms:                                          9
                             - Shell sets:                                    18
                             - Shells:                                        18
                             - Primitive Cartesian functions:                104
                             - Cartesian basis functions:                     28
                             - Spherical basis functions:                     28

  Maximum angular momentum of the orbital basis functions:                     1


 SCF PARAMETERS         Density guess:                                     MOPAC
                        --------------------------------------------------------
                        max_scf:                                             300
                        max_scf_history:                                       0
                        max_diis:                                              4
                        --------------------------------------------------------
                        eps_scf:                                        1.00E-09
                        eps_scf_history:                                0.00E+00
                        eps_diis:                                       1.00E-01
                        eps_eigval:                                     1.00E-05
                        --------------------------------------------------------
                        level_shift [a.u.]:                             0.000000
                        added MOs                                        15    0
                        --------------------------------------------------------
                        Mixing method:                           DIRECT_P_MIXING
                        --------------------------------------------------------
                        Smear method:                                FERMI_DIRAC
                        Electronic temperature [K]:                        300.0
                        Electronic temperature [a.u.]:                  9.50E-04
                        Accuracy threshold:                             1.00E-06
                        --------------------------------------------------------
                        No outer SCF

 BFGS| Use rational function optimization for step estimation:                NO
 BFGS| Use model Hessian for initial guess:                                  YES
 BFGS| Restart Hessian:                                                       NO
 BFGS| Trust radius:                                                       0.472

 *******************************************************************************
 ***                     STARTING GEOMETRY OPTIMIZATION                      ***
 ***                                   BFGS                                  ***
 *******************************************************************************

 Extrapolation method: initial_guess

 Number of electrons:                                                         26
 Number of occupied orbitals:                                                 13
 Number of molecular orbitals:                                                28

 Number of orbital functions:                                                 28
 Number of independent orbital functions:                                     28


 SCF WAVEFUNCTION OPTIMIZATION

  Step     Update method      Time    Convergence         Total energy    Change
  ------------------------------------------------------------------------------
     1 TBLite/Diag 0.40E+00    0.0     1.44318302       -14.7596811782 -1.48E+01
     2 TBLite/Diag 0.40E+00    0.0     0.41764426       -14.8581473284 -9.85E-02
     3 TBLite/Diag 0.40E+00    0.0     0.11803191       -14.8583142007 -1.67E-04
     4 TBLite/Diag 0.40E+00    0.0     0.08075251       -14.8624978896 -4.18E-03
     5 TBLite/Diag 0.40E+00    0.0     0.02203616       -14.8630566693 -5.59E-04
     6 TBLite/Diag 0.40E+00    0.0     0.00265528       -14.8630650793 -8.41E-06
     7 TBLite/Diag 0.40E+00    0.0     0.00076786       -14.8630655808 -5.02E-07
     8 TBLite/Diag 0.40E+00    0.0     0.00016694       -14.8630656232 -4.23E-08
     9 TBLite/Diag 0.40E+00    0.0     0.00003432       -14.8630656240 -8.03E-10
    10 TBLite/Diag 0.40E+00    0.0     0.00001343       -14.8630656241 -8.44E-11
    11 TBLite/Diag 0.40E+00    0.0     0.00000174       -14.8630656241 -4.36E-12
    12 TBLite/Diag 0.40E+00    0.0     0.00000028       -14.8630656241 -1.07E-13
    13 TBLite/Diag 0.40E+00    0.0     0.00000011       -14.8630656241 -1.42E-14
    14 TBLite/Diag 0.40E+00    0.0     0.00000003       -14.8630656241  8.88E-15
    15 TBLite/Diag 0.40E+00    0.0     6.5151E-10       -14.8630656241 -5.33E-15

  *** SCF run converged in    15 steps ***


  Core Hamiltonian energy:                                    -15.07849195891093
  Repulsive potential energy:                                   0.19113165019764
  Electrostatic energy:                                         0.02698925555577
  Self-consistent dispersion energy:                            0.00000000000000
  Non-self consistent dispersion energy:                       -0.00269457089901
  Correction for halogen bonding:                               0.00000000000000
  Electronic entropic energy:                                  -0.00000000000000
  Fermi energy:                                                -0.26742747049996

  Total energy:                                               -14.86306562405654
  Total energy (extrapolated to T->0):                        -14.86306562405654

 ENERGY| Total FORCE_EVAL ( QS ) energy [hartree]            -14.863065624056535

 OPT| **************************************************************************
 OPT| Step number                                                              0
 OPT| Optimization method                                                   BFGS
 OPT| Total energy [hartree]                                      -14.8630656241
 OPT| Used time [s]                                                        0.018
 OPT| **************************************************************************
 OPT| Estimated peak process memory [MiB]                                    166

 --------------------------
 OPTIMIZATION STEP:      1
 --------------------------

 Extrapolation method: ASPC

 Number of electrons:                                                         26
 Number of occupied orbitals:                                                 13
 Number of molecular orbitals:                                                28

 Number of orbital functions:                                                 28
 Number of independent orbital functions:                                     28


 SCF WAVEFUNCTION OPTIMIZATION

  Step     Update method      Time    Convergence         Total energy    Change
  ------------------------------------------------------------------------------
     1 TBLite/Diag 0.40E+00    0.0     0.03019743       -14.8636986697 -1.49E+01
     2 TBLite/Diag 0.40E+00    0.0     0.00641575       -14.8637218109 -2.31E-05
     3 TBLite/Diag 0.40E+00    0.0     0.00186760       -14.8637231299 -1.32E-06
     4 TBLite/Diag 0.40E+00    0.0     0.00075264       -14.8637237091 -5.79E-07
     5 TBLite/Diag 0.40E+00    0.0     0.00011381       -14.8637237211 -1.20E-08
     6 TBLite/Diag 0.40E+00    0.0     0.00004503       -14.8637237223 -1.15E-09
     7 TBLite/Diag 0.40E+00    0.0     0.00000907       -14.8637237223 -4.62E-11
     8 TBLite/Diag 0.40E+00    0.0     0.00000119       -14.8637237223 -1.31E-12
     9 TBLite/Diag 0.40E+00    0.0     0.00000006       -14.8637237223  5.33E-15
    10 TBLite/Diag 0.40E+00    0.0     8.5271E-09       -14.8637237223 -1.42E-14
    11 TBLite/Diag 0.40E+00    0.0     2.3816E-10       -14.8637237223  1.24E-14

  *** SCF run converged in    11 steps ***


  Core Hamiltonian energy:                                    -15.08757696504203
  Repulsive potential energy:                                   0.19935097247455
  Electrostatic energy:                                         0.02719830580083
  Self-consistent dispersion energy:                            0.00000000000000
  Non-self consistent dispersion energy:                       -0.00269603556047
  Correction for halogen bonding:                               0.00000000000000
  Electronic entropic energy:                                  -0.00000000000000
  Fermi energy:                                                -0.26399528050230

  Total energy:                                               -14.86372372232712
  Total energy (extrapolated to T->0):                        -14.86372372232712

 ENERGY| Total FORCE_EVAL ( QS ) energy [hartree]            -14.863723722327125

 OPT| **************************************************************************
 OPT| Step number                                                              1
 OPT| Optimization method                                                   BFGS
 OPT| Total energy [hartree]                                      -14.8637237223
 OPT| Effective energy change [hartree]                            -0.0006580983
 OPT| Predicted energy change [hartree]                            -0.0007191520
 OPT| Scaling factor                                                0.0000000000
 OPT| Step size                                                     0.0425942833
 OPT| Trust radius                                                  0.4724315332
 OPT| Decrease in energy                                                     YES
 OPT| Used time [s]                                                        0.009
 OPT|
 OPT| Maximum step size                                             0.0425942833
 OPT| Convergence limit for maximum step size                       0.0030000000
 OPT| Maximum step size is converged                                          NO
 OPT|
 OPT| RMS step size                                                 0.0129579966
 OPT| Convergence limit for RMS step size                           0.0015000000
 OPT| RMS step size is converged                                              NO
 OPT|
 OPT| Maximum gradient                                              0.0073772489
 OPT| Convergence limit for maximum gradient                        0.0004500000
 OPT| Maximum gradient is converged                                           NO
 OPT|
 OPT| RMS gradient                                                  0.0022593075
 OPT| Convergence limit for RMS gradient                            0.0003000000
 OPT| RMS gradient is converged                                               NO
 OPT| **************************************************************************
 OPT| Estimated peak process memory after this step [MiB]                    166

 --------------------------
 OPTIMIZATION STEP:      2
 --------------------------

 Extrapolation method: ASPC

 Number of electrons:                                                         26
 Number of occupied orbitals:                                                 13
 Number of molecular orbitals:                                                28

 Number of orbital functions:                                                 28
 Number of independent orbital functions:                                     28


 SCF WAVEFUNCTION OPTIMIZATION

  Step     Update method      Time    Convergence         Total energy    Change
  ------------------------------------------------------------------------------
     1 TBLite/Diag 0.40E+00    0.0     0.00683466       -14.8638808697 -1.49E+01
     2 TBLite/Diag 0.40E+00    0.0     0.00158236       -14.8638828180 -1.95E-06
     3 TBLite/Diag 0.40E+00    0.0     0.00061172       -14.8638829509 -1.33E-07
     4 TBLite/Diag 0.40E+00    0.0     0.00016465       -14.8638829683 -1.74E-08
     5 TBLite/Diag 0.40E+00    0.0     0.00002274       -14.8638829691 -8.72E-10
     6 TBLite/Diag 0.40E+00    0.0     0.00001709       -14.8638829693 -1.85E-10
     7 TBLite/Diag 0.40E+00    0.0     0.00000225       -14.8638829693 -5.24E-12
     8 TBLite/Diag 0.40E+00    0.0     0.00000070       -14.8638829693 -9.79E-13
     9 TBLite/Diag 0.40E+00    0.0     0.00000002       -14.8638829693 -8.88E-15
    10 TBLite/Diag 0.40E+00    0.0     0.00000001       -14.8638829693  3.55E-15
    11 TBLite/Diag 0.40E+00    0.0     1.4368E-10       -14.8638829693  8.88E-15

  *** SCF run converged in    11 steps ***


  Core Hamiltonian energy:                                    -15.09210421093432
  Repulsive potential energy:                                   0.20382631200893
  Electrostatic energy:                                         0.02707713150775
  Self-consistent dispersion energy:                            0.00000000000000
  Non-self consistent dispersion energy:                       -0.00268220189895
  Correction for halogen bonding:                               0.00000000000000
  Electronic entropic energy:                                  -0.00000000000000
  Fermi energy:                                                -0.26253822336293

  Total energy:                                               -14.86388296931659
  Total energy (extrapolated to T->0):                        -14.86388296931659

 ENERGY| Total FORCE_EVAL ( QS ) energy [hartree]            -14.863882969316588

 OPT| **************************************************************************
 OPT| Step number                                                              2
 OPT| Optimization method                                                   BFGS
 OPT| Total energy [hartree]                                      -14.8638829693
 OPT| Effective energy change [hartree]                            -0.0001592470
 OPT| Predicted energy change [hartree]                            -0.0001835963
 OPT| Scaling factor                                                0.0000000000
 OPT| Step size                                                     0.0205070227
 OPT| Trust radius                                                  0.4724315332
 OPT| Decrease in energy                                                     YES
 OPT| Used time [s]                                                        0.010
 OPT|
 OPT| Maximum step size                                             0.0205070227
 OPT| Convergence limit for maximum step size                       0.0030000000
 OPT| Maximum step size is converged                                          NO
 OPT|
 OPT| RMS step size                                                 0.0081311878
 OPT| Convergence limit for RMS step size                           0.0015000000
 OPT| RMS step size is converged                                              NO
 OPT|
 OPT| Maximum gradient                                              0.0016915846
 OPT| Convergence limit for maximum gradient                        0.0004500000
 OPT| Maximum gradient is converged                                           NO
 OPT|
 OPT| RMS gradient                                                  0.0006046567
 OPT| Convergence limit for RMS gradient                            0.0003000000
 OPT| RMS gradient is converged                                               NO
 OPT| **************************************************************************
 OPT| Estimated peak process memory after this step [MiB]                    167

 --------------------------
 OPTIMIZATION STEP:      3
 --------------------------

 Extrapolation method: ASPC

 Number of electrons:                                                         26
 Number of occupied orbitals:                                                 13
 Number of molecular orbitals:                                                28

 Number of orbital functions:                                                 28
 Number of independent orbital functions:                                     28


 SCF WAVEFUNCTION OPTIMIZATION

  Step     Update method      Time    Convergence         Total energy    Change
  ------------------------------------------------------------------------------
     1 TBLite/Diag 0.40E+00    0.0     0.00098837       -14.8638905109 -1.49E+01
     2 TBLite/Diag 0.40E+00    0.0     0.00029315       -14.8638905782 -6.73E-08
     3 TBLite/Diag 0.40E+00    0.0     0.00007592       -14.8638905800 -1.79E-09
     4 TBLite/Diag 0.40E+00    0.0     0.00003292       -14.8638905801 -1.60E-10
     5 TBLite/Diag 0.40E+00    0.0     0.00001343       -14.8638905802 -1.16E-10
     6 TBLite/Diag 0.40E+00    0.0     0.00000124       -14.8638905802 -1.78E-12
     7 TBLite/Diag 0.40E+00    0.0     0.00000029       -14.8638905802 -7.46E-14
     8 TBLite/Diag 0.40E+00    0.0     0.00000005       -14.8638905802  1.42E-14
     9 TBLite/Diag 0.40E+00    0.0     8.5022E-09       -14.8638905802 -1.07E-14
    10 TBLite/Diag 0.40E+00    0.0     5.2302E-10       -14.8638905802 -7.11E-15

  *** SCF run converged in    10 steps ***


  Core Hamiltonian energy:                                    -15.09120943448544
  Repulsive potential energy:                                   0.20293097156240
  Electrostatic energy:                                         0.02707166694105
  Self-consistent dispersion energy:                            0.00000000000000
  Non-self consistent dispersion energy:                       -0.00268378425970
  Correction for halogen bonding:                               0.00000000000000
  Electronic entropic energy:                                  -0.00000000000000
  Fermi energy:                                                -0.26273964074302

  Total energy:                                               -14.86389058024168
  Total energy (extrapolated to T->0):                        -14.86389058024168

 ENERGY| Total FORCE_EVAL ( QS ) energy [hartree]            -14.863890580241682

 OPT| **************************************************************************
 OPT| Step number                                                              3
 OPT| Optimization method                                                   BFGS
 OPT| Total energy [hartree]                                      -14.8638905802
 OPT| Effective energy change [hartree]                            -0.0000076109
 OPT| Predicted energy change [hartree]                            -0.0000062512
 OPT| Scaling factor                                                0.0000000000
 OPT| Step size                                                     0.0036536877
 OPT| Trust radius                                                  0.4724315332
 OPT| Decrease in energy                                                     YES
 OPT| Used time [s]                                                        0.010
 OPT|
 OPT| Maximum step size                                             0.0036536877
 OPT| Convergence limit for maximum step size                       0.0030000000
 OPT| Maximum step size is converged                                          NO
 OPT|
 OPT| RMS step size                                                 0.0012427320
 OPT| Convergence limit for RMS step size                           0.0015000000
 OPT| RMS step size is converged                                             YES
 OPT|
 OPT| Maximum gradient                                              0.0007043622
 OPT| Convergence limit for maximum gradient                        0.0004500000
 OPT| Maximum gradient is converged                                           NO
 OPT|
 OPT| RMS gradient                                                  0.0002582258
 OPT| Convergence limit for RMS gradient                            0.0003000000
 OPT| RMS gradient is converged                                              YES
 OPT| **************************************************************************
 OPT| Estimated peak process memory after this step [MiB]                    167

 --------------------------
 OPTIMIZATION STEP:      4
 --------------------------

 Extrapolation method: ASPC

 Number of electrons:                                                         26
 Number of occupied orbitals:                                                 13
 Number of molecular orbitals:                                                28

 Number of orbital functions:                                                 28
 Number of independent orbital functions:                                     28


 SCF WAVEFUNCTION OPTIMIZATION

  Step     Update method      Time    Convergence         Total energy    Change
  ------------------------------------------------------------------------------
     1 TBLite/Diag 0.40E+00    0.0     0.00092496       -14.8638918939 -1.49E+01
     2 TBLite/Diag 0.40E+00    0.0     0.00026875       -14.8638919556 -6.17E-08
     3 TBLite/Diag 0.40E+00    0.0     0.00002302       -14.8638919559 -3.50E-10
     4 TBLite/Diag 0.40E+00    0.0     0.00000742       -14.8638919560 -3.69E-11
     5 TBLite/Diag 0.40E+00    0.0     0.00000163       -14.8638919560 -1.97E-12
     6 TBLite/Diag 0.40E+00    0.0     0.00000061       -14.8638919560 -5.83E-13
     7 TBLite/Diag 0.40E+00    0.0     0.00000012       -14.8638919560 -2.13E-14
     8 TBLite/Diag 0.40E+00    0.0     0.00000004       -14.8638919560  3.55E-15
     9 TBLite/Diag 0.40E+00    0.0     0.00000001       -14.8638919560 -1.42E-14
    10 TBLite/Diag 0.40E+00    0.0     1.0117E-09       -14.8638919560  0.00E+00
    11 TBLite/Diag 0.40E+00    0.0     1.2837E-11       -14.8638919560  1.42E-14

  *** SCF run converged in    11 steps ***


  Core Hamiltonian energy:                                    -15.09101362905085
  Repulsive potential energy:                                   0.20274434453863
  Electrostatic energy:                                         0.02706130667949
  Self-consistent dispersion energy:                            0.00000000000000
  Non-self consistent dispersion energy:                       -0.00268397814152
  Correction for halogen bonding:                               0.00000000000000
  Electronic entropic energy:                                  -0.00000000000000
  Fermi energy:                                                -0.26275462700141

  Total energy:                                               -14.86389195597425
  Total energy (extrapolated to T->0):                        -14.86389195597425

 ENERGY| Total FORCE_EVAL ( QS ) energy [hartree]            -14.863891955974252

 OPT| **************************************************************************
 OPT| Step number                                                              4
 OPT| Optimization method                                                   BFGS
 OPT| Total energy [hartree]                                      -14.8638919560
 OPT| Effective energy change [hartree]                            -0.0000013757
 OPT| Predicted energy change [hartree]                            -0.0000011164
 OPT| Scaling factor                                                0.0000000000
 OPT| Step size                                                     0.0023202143
 OPT| Trust radius                                                  0.4724315332
 OPT| Decrease in energy                                                     YES
 OPT| Used time [s]                                                        0.010
 OPT|
 OPT| Maximum step size                                             0.0023202143
 OPT| Convergence limit for maximum step size                       0.0030000000
 OPT| Maximum step size is converged                                         YES
 OPT|
 OPT| RMS step size                                                 0.0006734153
 OPT| Convergence limit for RMS step size                           0.0015000000
 OPT| RMS step size is converged                                             YES
 OPT|
 OPT| Maximum gradient                                              0.0002292443
 OPT| Convergence limit for maximum gradient                        0.0004500000
 OPT| Maximum gradient is converged                                          YES
 OPT|
 OPT| RMS gradient                                                  0.0000830500
 OPT| Convergence limit for RMS gradient                            0.0003000000
 OPT| RMS gradient is converged                                              YES
 OPT| **************************************************************************
 OPT| Estimated peak process memory after this step [MiB]                    167

 *******************************************************************************
 ***                    GEOMETRY OPTIMIZATION COMPLETED                      ***
 *******************************************************************************

 write_final_structure: Optimization converged, writing XYZ file gladly:
  imidazole_GFN1_mol_geoopt-FINAL-1_4.xyz

 write_final_structure: Optimization converged, writing CIF file gladly:
  imidazole_GFN1_mol_geoopt-FINAL-1_4.cif

 write_final_structure: Done!

                    Reevaluating energy at the minimum

 Extrapolation method: ASPC

 Number of electrons:                                                         26
 Number of occupied orbitals:                                                 13
 Number of molecular orbitals:                                                28

 Number of orbital functions:                                                 28
 Number of independent orbital functions:                                     28


 SCF WAVEFUNCTION OPTIMIZATION

  Step     Update method      Time    Convergence         Total energy    Change
  ------------------------------------------------------------------------------
     1 TBLite/Diag 0.40E+00    0.0     6.5027E-12       -14.8638919560 -1.49E+01

  *** SCF run converged in     1 steps ***


  Core Hamiltonian energy:                                    -15.09101362905001
  Repulsive potential energy:                                   0.20274434453863
  Electrostatic energy:                                         0.02706130667865
  Self-consistent dispersion energy:                            0.00000000000000
  Non-self consistent dispersion energy:                       -0.00268397814152
  Correction for halogen bonding:                               0.00000000000000
  Electronic entropic energy:                                  -0.00000000000000
  Fermi energy:                                                -0.26275462700190

  Total energy:                                               -14.86389195597425
  Total energy (extrapolated to T->0):                        -14.86389195597425

 ENERGY| Total FORCE_EVAL ( QS ) energy [hartree]            -14.863891955974253

 -------------------------------------------------------------------------------
 -                                                                             -
 -                                DBCSR STATISTICS                             -
 -                                                                             -
 -------------------------------------------------------------------------------
 COUNTER                                    TOTAL       BLAS       SMM       ACC
 flops     2 x    28 x     2                53760       0.0%    100.0%      0.0%     
 flops     2 x    28 x     4               134400       0.0%    100.0%      0.0%     
 flops     4 x    28 x     2               134400       0.0%    100.0%      0.0%     
 flops     2 x     2 x    28               154560       0.0%    100.0%      0.0%     
 flops     2 x     4 x    28               309120       0.0%    100.0%      0.0%     
 flops     4 x     2 x    28               309120       0.0%    100.0%      0.0%     
 flops     4 x    28 x     4               336000       0.0%    100.0%      0.0%     
 flops     4 x     4 x    28               927360       0.0%    100.0%      0.0%     
 flops inhomo. stacks                           0       0.0%      0.0%      0.0%
 flops total                         2.358720E+06       0.0%    100.0%      0.0%
 flops max/rank                      2.358720E+06       0.0%    100.0%      0.0%
 matmuls inhomo. stacks                         0       0.0%      0.0%      0.0%
 matmuls total                               4320       0.0%    100.0%      0.0%
 number of processed stacks                   336       0.0%    100.0%      0.0%
 average stack size                                     0.0      12.9       0.0
 marketing flops                     2.065056E+06
 -------------------------------------------------------------------------------
 # multiplications                             84
 max memory usage/rank              13.671879E+09
 # max total images/rank                        1
 # max 3D layers                                1
 # MPI messages exchanged                       0
 -------------------------------------------------------------------------------
 -                                                                             -
 -                      DBCSR MESSAGE PASSING PERFORMANCE                      -
 -                                                                             -
 -------------------------------------------------------------------------------
 ROUTINE             CALLS      AVE VOLUME [Bytes]
 MP_Bcast                9                     12.
 MP_Allreduce          425                      9.
 MP_Alltoall          2835                   4231.
 MP_ISend              336                    309.
 MP_IRecv              336                    309.
 -------------------------------------------------------------------------------

 -------------------------------------------------------------------------------
 -                                                                             -
 -                          OFFLOAD MEMPOOL STATISTICS                         -
 -                                                                             -
 -------------------------------------------------------------------------------
 Memory consumption                Number of allocations  Used [MiB]  Size [MiB]
 Device                                                1           0           0
 Host                                                  1           0           0
 -------------------------------------------------------------------------------

 MEMORY| Estimated peak process memory [MiB]                                 167

 -------------------------------------------------------------------------------
 -                                                                             -
 -                         MESSAGE PASSING PERFORMANCE                         -
 -                                                                             -
 -------------------------------------------------------------------------------

 ROUTINE             CALLS      AVE VOLUME [Bytes]
 MP_Group                1
 MP_Bcast              132                    119.
 MP_Allreduce         1010                     67.
 MP_Sync                70
 MP_comm_split          69
 -------------------------------------------------------------------------------


 -------------------------------------------------------------------------------
 -                                                                             -
 -                           R E F E R E N C E S                               -
 -                                                                             -
 -------------------------------------------------------------------------------
 
 CP2K version 2026.1 (Development Version), the CP2K developers group (2026).
 CP2K is freely available from https://www.cp2k.org/ .
 
 M. Iannuzzi, J. Wilhelm, F. Stein, A. Bussy, H. Elgabarty, D. Golze, A. Hehn, 
 M. Graml, S. Marek, B. Sertcan Gökmen, C. Schran, H. Forbert, R. Z. 
 Khaliullin, A. Kozhevnikov, M. Taillefumier, R. Meli, V. V. Rybkin, M. Brehm, 
 R. Schade, O. Schütt, J. V. Pototschnig, H. Mirhosseini, A. Knüpfer, D. Marx, 
 M. Krack, J. Hutter, T. D. Kühne.
 J. Phys. Chem. B 130, 1237-1310 (2026).
 The CP2K Program Package Made Simple.
 https://doi.org/10.1021/acs.jpcb.5c05851

 A. Katbashev, M. Stahn, T. Rose, V. Alizadeh, M. Friede, C. Plett, P. 
 Steinbach, S. Ehlert.
 J. Phys. Chem. A 129, 2667-2682 (2025).
 Overview on Building Blocks and Applications of Efficient and Robust Extended 
 Tight Binding.
 https://doi.org/10.1021/acs.jpca.4c08263

 T. D. Kühne, M. Iannuzzi, M. Del Ben, V. V. Rybkin, P. Seewald, F. Stein, T. 
 Laino, R. Z. Khaliullin, O. Schütt, F. Schiffmann, D. Golze, J. Wilhelm, S. 
 Chulkov, M. H. Bani-Hashemian, V. Weber, U. Borstnik, M. Taillefumier, A. S. 
 Jakobovits, A. Lazzaro, H. Pabst, T. Müller, R. Schade, M. Guidon, S. 
 Andermatt, N. Holmberg, G. K. Schenter, A. Hehn, A. Bussy, F. Belleflamme, G. 
 Tabacchi, A. Glöß, M. Lass, I. Bethune, C. J. Mundy, C. Plessl, M. Watkins, 
 J. VandeVondele, M. Krack, J. Hutter.
 J. Chem. Phys. 152, 194103 (2020).
 CP2K: An electronic structure and molecular dynamics software package - 
 Quickstep: Efficient and accurate electronic structure calculations.
 https://doi.org/10.1063/5.0007045

 P. Pracht, E. Caldeweyher, S. Ehlert, S. Grimme.
 ChemRxiv, (2019).
 A Robust Non-Self-Consistent Tight-Binding Quantum Chemistry Method for large 
 Molecules.
 https://doi.org/10.26434/chemrxiv.8326202.v1

 S. Grimme, C. Bannwarth, P. Shushkov.
 J. Chem. Theory Comput. 13, 1989 (2017).
 A Robust and Accurate Tight-Binding Quantum Chemical Method for Structures, 
 Vibrational Frequencies, and Noncovalent Interactions of Large Molecular 
 Systems Parametrized for All spd-Block Elements (Z = 1-86).
 https://doi.org/10.1021/acs.jctc.7b00118

 O. Schuett, P. Messmer, J. Hutter, J. VandeVondele.
 Electronic Structure Calculations on Graphics Processing Units, 173-190 (2016).
 GPU-Accelerated Sparse Matrix-Matrix Multiplication for Linear Scaling Density 
 Functional Theory.
 https://doi.org/10.1002/9781118670712.ch8

 A. Heinecke, G. Henry, M. Hutchinson, H. Pabst.
 Proceedings of Intl. Supercomputing Conference, 981-991 (2016).
 LIBXSMM: Accelerating Small Matrix Multiplications by Runtime Code Generation.
 https://doi.org/10.1109/SC.2016.83

 U. Borstnik, J. VandeVondele, V. Weber, J. Hutter.
 Parallel Comput. 40, 47-58 (2014).
 Sparse matrix multiplication: The distributed block-compressed sparse row 
 library.
 https://doi.org/10.1016/j.parco.2014.03.012

 T. D. Kühne, M. Krack, F. R. Mohamed, M. Parrinello.
 Phys. Rev. Lett. 98, 066401 (2007).
 Efficient and accurate Car-Parrinello-like approach to Born-Oppenheimer 
 molecular dynamics.
 https://doi.org/10.1103/PhysRevLett.98.066401

 M. Frigo, S. G. Johnson.
 Proc. IEEE 93, 216-231 (2005).
 The design and implementation of FFTW3.
 https://doi.org/10.1109/JPROC.2004.840301

 J. Kolafa.
 J. Comput. Chem. 25, 335-342 (2004).
 Time-reversible always stable predictor-corrector method for molecular dynamics 
 of polarizable molecules.
 https://doi.org/10.1002/jcc.10385

 N. D. Mermin.
 Phys. Rev. 137, A1441-A1443 (1965).
 Thermal Properties of the Inhomogeneous Electron Gas.
 https://doi.org/10.1103/PhysRev.137.A1441


 -------------------------------------------------------------------------------
 -                                                                             -
 -                                T I M I N G                                  -
 -                                                                             -
 -------------------------------------------------------------------------------
 SUBROUTINE                       CALLS  ASD         SELF TIME        TOTAL TIME
                                MAXIMUM       AVERAGE  MAXIMUM  AVERAGE  MAXIMUM
 CP2K                                 1  1.0    0.002    0.002    0.070    0.070
 cp_geo_opt                           1  2.0    0.000    0.000    0.061    0.061
 geoopt_bfgs                          1  3.0    0.001    0.001    0.061    0.061
 cp_eval_at                           6  4.0    0.000    0.000    0.057    0.057
 qs_forces                            5  5.0    0.000    0.000    0.054    0.054
 qs_energies                          6  5.8    0.000    0.000    0.051    0.051
 scf_env_do_scf                       6  6.8    0.000    0.000    0.039    0.039
 scf_env_do_scf_inner_loop           59  8.0    0.001    0.001    0.039    0.039
 qs_scf_new_mos                      59  9.0    0.000    0.000    0.034    0.034
 cp_dbcsr_plus_fm_fm_t               69 10.8    0.000    0.000    0.018    0.018
 calculate_dm_sparse                 64 10.0    0.000    0.000    0.017    0.017
 dbcsr_multiply_generic              84 11.9    0.001    0.001    0.015    0.015
 copy_dbcsr_to_fm                   133 10.4    0.000    0.000    0.010    0.010
 make_m2s                           168 12.9    0.001    0.001    0.009    0.009
 dbcsr_complete_redistribute        286 12.2    0.004    0.004    0.009    0.009
 eigensolver                         59 10.0    0.001    0.001    0.007    0.007
 cp_fm_syevd                         69 10.6    0.000    0.000    0.007    0.007
 init_scf_run                         6  6.8    0.000    0.000    0.006    0.006
 qs_init_subsys                       1  2.0    0.002    0.002    0.006    0.006
 qs_diis_b_step                      53 10.0    0.000    0.000    0.006    0.006
 scf_env_initial_rho_setup            6  7.8    0.000    0.000    0.006    0.006
 wfi_extrapolate                      6  8.8    0.000    0.000    0.005    0.005
 rebuild_ks_matrix                   64  9.8    0.000    0.000    0.005    0.005
 build_tblite_ks_matrix              64 10.8    0.005    0.005    0.005    0.005
 build_tblite_matrices               11  7.0    0.004    0.004    0.005    0.005
 copy_fm_to_dbcsr                   153 11.8    0.000    0.000    0.005    0.005
 cp_fm_syevd_base                    69 11.6    0.004    0.004    0.004    0.004
 qs_ks_update_qs_env_forces           5  6.0    0.000    0.000    0.004    0.004
 make_images                        168 13.9    0.001    0.001    0.004    0.004
 multiply_cannon                     84 12.9    0.001    0.001    0.003    0.003
 dbcsr_finalize                    1064 13.3    0.001    0.001    0.003    0.003
 cp_dbcsr_sm_fm_multiply             15 10.3    0.000    0.000    0.003    0.003
 qs_energies_init_hamiltonians        6  6.8    0.000    0.000    0.003    0.003
 qs_env_setup                         1  3.0    0.000    0.000    0.003    0.003
 qs_env_rebuild_pw_env               12  6.2    0.000    0.000    0.003    0.003
 pw_env_rebuild                       1  5.0    0.000    0.000    0.003    0.003
 dbcsr_create_new                  2035 13.4    0.002    0.002    0.002    0.002
 dbcsr_desymmetrize_deep            133 11.4    0.001    0.001    0.002    0.002
 dbcsr_crop_matrix                  138 13.8    0.000    0.000    0.002    0.002
 qs_ks_update_qs_env                 59  9.0    0.000    0.000    0.002    0.002
 dbcsr_copy_submatrix               138 14.8    0.001    0.001    0.002    0.002
 reorthogonalize_vectors              5  9.8    0.000    0.000    0.002    0.002
 cp_dbcsr_sm_fm_multiply_core        15 11.3    0.000    0.000    0.002    0.002
 make_basis_lowdin                    5 10.8    0.000    0.000    0.002    0.002
 pw_grid_setup                        1  6.0    0.000    0.000    0.002    0.002
 pw_grid_setup_internal               1  7.0    0.000    0.000    0.002    0.002
 cp_fm_redistribute_start            69 11.6    0.001    0.001    0.002    0.002
 dbcsr_merge_all                    493 14.9    0.001    0.001    0.002    0.002
 parallel_gemm_fm_gemm              141 10.6    0.000    0.000    0.002    0.002
 cp_fm_gemm                         141 11.6    0.002    0.002    0.002    0.002
 -------------------------------------------------------------------------------

 The number of warnings for this run is : 0
 
 -------------------------------------------------------------------------------
  **** **** ******  **  PROGRAM ENDED AT                 2026-05-23 22:46:19.683
 ***** ** ***  *** **   PROGRAM RAN ON                                spark-c86c
 **    ****   ******    PROGRAM RAN BY                                  kuehne88
 ***** **    ** ** **   PROGRAM PROCESS ID                               2222448
  **** **  *******  **  PROGRAM STOPPED IN /home/kuehne88/periodic-gfn2-benchmar
                                           ks/X23b/runs/molecule_geoopt/GFN1/imi
                                           dazole_GFN1_mol_geoopt
