 DBCSR| CPU Multiplication driver                                           XSMM (U)
 DBCSR| Multrec recursion limit                                              512 (U)
 DBCSR| Multiplication stack size                                           1000 (D)
 DBCSR| Maximum elements for images                                    UNLIMITED (U)
 DBCSR| Multiplicative factor virtual images                                   1 (U)
 DBCSR| Use multiplication densification                                       T (D)
 DBCSR| Multiplication size stacks                                             3 (U)
 DBCSR| Use memory pool for CPU allocation                                     F (U)
 DBCSR| Number of 3D layers                                               SINGLE (U)
 DBCSR| Use MPI memory allocation                                              F (U)
 DBCSR| Use RMA algorithm                                                      F (U)
 DBCSR| Use Communication thread                                               T (U)
 DBCSR| Communication thread load                                             87 (D)
 DBCSR| MPI: My process id                                                     0
 DBCSR| MPI: Number of processes                                               1
 DBCSR| OMP: Current number of threads                                         1
 DBCSR| OMP: Max number of threads                                             1
 DBCSR| Split modifier for TAS multiplication algorithm                  1.0E+00 (U)


  **** **** ******  **  PROGRAM STARTED AT               2026-05-23 22:46:19.965
 ***** ** ***  *** **   PROGRAM STARTED ON                            spark-c86c
 **    ****   ******    PROGRAM STARTED BY                              kuehne88
 ***** **    ** ** **   PROGRAM PROCESS ID                               2227435
  **** **  *******  **  PROGRAM STARTED IN /home/kuehne88/periodic-gfn2-benchmar
                                           ks/X23b/runs/molecule_geoopt/GFN2/hex
                                           amine_GFN2_mol_geoopt

 CP2K| version string:                 CP2K version 2026.1 (Development Version)
 CP2K| source code revision number:                                   0622d442e4
 CP2K| cp2kflags: omp fftw3 libxc parallel scalapack mpi_f08 xsmm spglib libdftd
 CP2K|            4 dftd4_v3 mctc-lib tblite
 CP2K| is freely available from                            https://www.cp2k.org/
 CP2K| Program compiled at                                   2026-05-23 22:05:08
 CP2K| Program compiled on                                            spark-c86c
 CP2K| Program compiled for                                              aarch64
 CP2K| Data directory path    /home/kuehne88/cp2k-master-tblite-20260523/install
 CP2K| Input file name                              hexamine_GFN2_mol_geoopt.inp

 GLOBAL| Force Environment number                                              1
 GLOBAL| Basis set file name                                           BASIS_SET
 GLOBAL| Potential file name                                           POTENTIAL
 GLOBAL| MM Potential file name                                     MM_POTENTIAL
 GLOBAL| Coordinate file name                                      __STD_INPUT__
 GLOBAL| Method name                                                        CP2K
 GLOBAL| Project name                                   hexamine_GFN2_mol_geoopt
 GLOBAL| Run type                                                        GEO_OPT
 GLOBAL| FFT library                                                       FFTW3
 GLOBAL| Diagonalization library                                       ScaLAPACK
 GLOBAL| Cholesky decomposition library                                ScaLAPACK
 GLOBAL| DGEMM library                                                      BLAS
 GLOBAL| Direct generalized diagonalization requested                          F
 GLOBAL| Orthonormality check for eigenvectors                          DISABLED
 GLOBAL| Matrix multiplication library                                 ScaLAPACK
 GLOBAL| All-to-all communication in single precision                          F
 GLOBAL| FFTs using library dependent lengths                                  F
 GLOBAL| Grid backend                                                       AUTO
 GLOBAL| Global print level                                                  LOW
 GLOBAL| MPI I/O enabled                                                       T
 GLOBAL| Total number of message passing processes                             1
 GLOBAL| Number of distributed systems (nodes)                                 1
 GLOBAL| Number of threads for this process                                    1
 GLOBAL| This output is from process                                           0
 GLOBAL| OpenMP stack size per thread (OMP_STACKSIZE)                    default
 GLOBAL| CPU model name                                                  UNKNOWN
 GLOBAL| CPUID                                                              2200
 GLOBAL| Compiled for CPUID                                                 2000

 *** HINT in environment.F:970 :: The compiler target flags (arm_arch64)   ***
 *** used to build this binary cannot exploit all extensions of this CPU   ***
 *** model (arm_sve256). Consider compiler target flags as part of FCFLAGS ***
 *** and CFLAGS (ARCH file).                                               ***


 MEMORY| system memory details [Kb]
 MEMORY|                        rank 0           min           max       average
 MEMORY| MemTotal            125508532     125508532     125508532     125508532
 MEMORY| MemFree             105796364     105796364     105796364     105796364
 MEMORY| Buffers                866144        866144        866144        866144
 MEMORY| Cached               13217052      13217052      13217052      13217052
 MEMORY| Slab                  1564704       1564704       1564704       1564704
 MEMORY| SReclaimable           888664        888664        888664        888664
 MEMORY| MemLikelyFree       120768224     120768224     120768224     120768224


 GENERATE|  Preliminary Number of Bonds generated:                             0
 GENERATE|  Achieved consistency in connectivity generation.


                  #####   #####        #     #   #     #       #          
                 #     # #     #      #    ##### #     #   # #####  ####  
                 #     # #           #       #   ###   #       #   #    # 
                 #     #  #####     #        #   #  #  #   #   #   ###### 
                 #   # #       #   #         #   #   # #   #   #   #      
                 #    #  #     #  #          #   #  #  # # #   #    #   # 
                  #### #  #####  #           #   ###   ##  #   #     ###  

                                   GFN2-xTB  
                                 Version 0.0                       
                            Johann V. Pototschnig                  



 TOTAL NUMBERS AND MAXIMUM NUMBERS

  Total number of            - Atomic kinds:                                   3
                             - Atoms:                                         22
                             - Shell sets:                                    32
                             - Shells:                                        32
                             - Primitive Cartesian functions:                116
                             - Cartesian basis functions:                     52
                             - Spherical basis functions:                     52

  Maximum angular momentum of the orbital basis functions:                     1


 SCF PARAMETERS         Density guess:                                     MOPAC
                        --------------------------------------------------------
                        max_scf:                                             300
                        max_scf_history:                                       0
                        max_diis:                                              4
                        --------------------------------------------------------
                        eps_scf:                                        1.00E-09
                        eps_scf_history:                                0.00E+00
                        eps_diis:                                       1.00E-01
                        eps_eigval:                                     1.00E-05
                        --------------------------------------------------------
                        level_shift [a.u.]:                             0.000000
                        added MOs                                        24    0
                        --------------------------------------------------------
                        Mixing method:                           DIRECT_P_MIXING
                        --------------------------------------------------------
                        Smear method:                                FERMI_DIRAC
                        Electronic temperature [K]:                        300.0
                        Electronic temperature [a.u.]:                  9.50E-04
                        Accuracy threshold:                             1.00E-06
                        --------------------------------------------------------
                        No outer SCF

 BFGS| Use rational function optimization for step estimation:                NO
 BFGS| Use model Hessian for initial guess:                                  YES
 BFGS| Restart Hessian:                                                       NO
 BFGS| Trust radius:                                                       0.472

 *******************************************************************************
 ***                     STARTING GEOMETRY OPTIMIZATION                      ***
 ***                                   BFGS                                  ***
 *******************************************************************************

 Extrapolation method: initial_guess

 Number of electrons:                                                         56
 Number of occupied orbitals:                                                 28
 Number of molecular orbitals:                                                52

 Number of orbital functions:                                                 52
 Number of independent orbital functions:                                     52


 SCF WAVEFUNCTION OPTIMIZATION

  Step     Update method      Time    Convergence         Total energy    Change
  ------------------------------------------------------------------------------
     1 TBLite/Diag 0.40E+00    0.0     0.75458747       -30.5953981093 -3.06E+01
     2 TBLite/Diag 0.40E+00    0.0     0.10537988       -30.6930437658 -9.76E-02
     3 TBLite/Diag 0.40E+00    0.0     0.03009148       -30.6973385354 -4.29E-03
     4 TBLite/Diag 0.40E+00    0.0     0.00533210       -30.6976309562 -2.92E-04
     5 TBLite/Diag 0.40E+00    0.0     0.00450890       -30.6977503671 -1.19E-04
     6 TBLite/Diag 0.40E+00    0.0     0.00202293       -30.6977404627  9.90E-06
     7 TBLite/Diag 0.40E+00    0.0     0.00153840       -30.6977561327 -1.57E-05
     8 TBLite/Diag 0.40E+00    0.0     0.00019704       -30.6977563692 -2.36E-07
     9 TBLite/Diag 0.40E+00    0.0     0.00002022       -30.6977563746 -5.42E-09
    10 TBLite/Diag 0.40E+00    0.0     0.00000495       -30.6977563747 -1.58E-10
    11 TBLite/Diag 0.40E+00    0.0     0.00000055       -30.6977563748 -2.34E-12
    12 TBLite/Diag 0.40E+00    0.0     0.00000001       -30.6977563748  4.26E-14
    13 TBLite/Diag 0.40E+00    0.0     0.00000002       -30.6977563748 -1.07E-14
    14 TBLite/Diag 0.40E+00    0.0     2.7831E-09       -30.6977563748  3.55E-15
    15 TBLite/Diag 0.40E+00    0.0     1.9014E-10       -30.6977563748 -1.78E-14

  *** SCF run converged in    15 steps ***


  Core Hamiltonian energy:                                    -31.04020850634509
  Repulsive potential energy:                                   0.29937520941399
  Electrostatic energy:                                         0.06459143346492
  Self-consistent dispersion energy:                           -0.02160760994289
  Non-self consistent dispersion energy:                        0.00009309865686
  Correction for halogen bonding:                               0.00000000000000
  Electronic entropic energy:                                  -0.00000000000000
  Fermi energy:                                                -0.03065589263831

  Total energy:                                               -30.69775637475221
  Total energy (extrapolated to T->0):                        -30.69775637475221

 ENERGY| Total FORCE_EVAL ( QS ) energy [hartree]            -30.697756374752210

 OPT| **************************************************************************
 OPT| Step number                                                              0
 OPT| Optimization method                                                   BFGS
 OPT| Total energy [hartree]                                      -30.6977563748
 OPT| Used time [s]                                                        0.034
 OPT| **************************************************************************
 OPT| Estimated peak process memory [MiB]                                    164

 --------------------------
 OPTIMIZATION STEP:      1
 --------------------------

 Extrapolation method: ASPC

 Number of electrons:                                                         56
 Number of occupied orbitals:                                                 28
 Number of molecular orbitals:                                                52

 Number of orbital functions:                                                 52
 Number of independent orbital functions:                                     52


 SCF WAVEFUNCTION OPTIMIZATION

  Step     Update method      Time    Convergence         Total energy    Change
  ------------------------------------------------------------------------------
     1 TBLite/Diag 0.40E+00    0.0     0.03470764       -30.6999766493 -3.07E+01
     2 TBLite/Diag 0.40E+00    0.0     0.00103341       -30.6999856936 -9.04E-06
     3 TBLite/Diag 0.40E+00    0.0     0.00065801       -30.6999868021 -1.11E-06
     4 TBLite/Diag 0.40E+00    0.0     0.00020845       -30.6999871735 -3.71E-07
     5 TBLite/Diag 0.40E+00    0.0     0.00003486       -30.6999871796 -6.11E-09
     6 TBLite/Diag 0.40E+00    0.0     0.00000871       -30.6999871800 -3.88E-10
     7 TBLite/Diag 0.40E+00    0.0     0.00000195       -30.6999871800 -3.61E-12
     8 TBLite/Diag 0.40E+00    0.0     0.00000089       -30.6999871800 -2.86E-12
     9 TBLite/Diag 0.40E+00    0.0     0.00000014       -30.6999871800 -9.24E-14
    10 TBLite/Diag 0.40E+00    0.0     3.8812E-09       -30.6999871800  2.49E-14
    11 TBLite/Diag 0.40E+00    0.0     8.7094E-10       -30.6999871800 -2.13E-14

  *** SCF run converged in    11 steps ***


  Core Hamiltonian energy:                                    -31.05917476917690
  Repulsive potential energy:                                   0.31629761784714
  Electrostatic energy:                                         0.06449521458434
  Self-consistent dispersion energy:                           -0.02169613836704
  Non-self consistent dispersion energy:                        0.00009089507159
  Correction for halogen bonding:                               0.00000000000000
  Electronic entropic energy:                                  -0.00000000000000
  Fermi energy:                                                -0.02224436734678

  Total energy:                                               -30.69998718004086
  Total energy (extrapolated to T->0):                        -30.69998718004086

 ENERGY| Total FORCE_EVAL ( QS ) energy [hartree]            -30.699987180040861

 OPT| **************************************************************************
 OPT| Step number                                                              1
 OPT| Optimization method                                                   BFGS
 OPT| Total energy [hartree]                                      -30.6999871800
 OPT| Effective energy change [hartree]                            -0.0022308053
 OPT| Predicted energy change [hartree]                            -0.0019556870
 OPT| Scaling factor                                                0.0000000000
 OPT| Step size                                                     0.0379563053
 OPT| Trust radius                                                  0.4724315332
 OPT| Decrease in energy                                                     YES
 OPT| Used time [s]                                                        0.027
 OPT|
 OPT| Maximum step size                                             0.0379563053
 OPT| Convergence limit for maximum step size                       0.0030000000
 OPT| Maximum step size is converged                                          NO
 OPT|
 OPT| RMS step size                                                 0.0128785293
 OPT| Convergence limit for RMS step size                           0.0015000000
 OPT| RMS step size is converged                                              NO
 OPT|
 OPT| Maximum gradient                                              0.0054076146
 OPT| Convergence limit for maximum gradient                        0.0004500000
 OPT| Maximum gradient is converged                                           NO
 OPT|
 OPT| RMS gradient                                                  0.0020688277
 OPT| Convergence limit for RMS gradient                            0.0003000000
 OPT| RMS gradient is converged                                               NO
 OPT| **************************************************************************
 OPT| Estimated peak process memory after this step [MiB]                    164

 --------------------------
 OPTIMIZATION STEP:      2
 --------------------------

 Extrapolation method: ASPC

 Number of electrons:                                                         56
 Number of occupied orbitals:                                                 28
 Number of molecular orbitals:                                                52

 Number of orbital functions:                                                 52
 Number of independent orbital functions:                                     52


 SCF WAVEFUNCTION OPTIMIZATION

  Step     Update method      Time    Convergence         Total energy    Change
  ------------------------------------------------------------------------------
     1 TBLite/Diag 0.40E+00    0.0     0.03157443       -30.6992294904 -3.07E+01
     2 TBLite/Diag 0.40E+00    0.0     0.00259440       -30.6992777906 -4.83E-05
     3 TBLite/Diag 0.40E+00    0.0     0.00113450       -30.6992801512 -2.36E-06
     4 TBLite/Diag 0.40E+00    0.0     0.00040096       -30.6992812292 -1.08E-06
     5 TBLite/Diag 0.40E+00    0.0     0.00010275       -30.6992812801 -5.10E-08
     6 TBLite/Diag 0.40E+00    0.0     0.00002147       -30.6992812821 -1.99E-09
     7 TBLite/Diag 0.40E+00    0.0     0.00000145       -30.6992812821 -5.27E-12
     8 TBLite/Diag 0.40E+00    0.0     0.00000067       -30.6992812821 -1.20E-12
     9 TBLite/Diag 0.40E+00    0.0     0.00000012       -30.6992812821 -4.62E-14
    10 TBLite/Diag 0.40E+00    0.0     5.1132E-09       -30.6992812821 -3.55E-15
    11 TBLite/Diag 0.40E+00    0.0     8.7731E-10       -30.6992812821  1.78E-14

  *** SCF run converged in    11 steps ***


  Core Hamiltonian energy:                                    -31.06969579612238
  Repulsive potential energy:                                   0.33000351668702
  Electrostatic energy:                                         0.06213138379030
  Self-consistent dispersion energy:                           -0.02180846146056
  Non-self consistent dispersion energy:                        0.00008807498757
  Correction for halogen bonding:                               0.00000000000000
  Electronic entropic energy:                                  -0.00000000000000
  Fermi energy:                                                -0.00404087641422

  Total energy:                                               -30.69928128211804
  Total energy (extrapolated to T->0):                        -30.69928128211804

 ENERGY| Total FORCE_EVAL ( QS ) energy [hartree]            -30.699281282118044

 OPT| **************************************************************************
 OPT| Step number                                                              2
 OPT| Optimization method                                                   BFGS
 OPT| Total energy [hartree]                                      -30.6992812821
 OPT| Effective energy change [hartree]                             0.0007058979
 OPT| Predicted energy change [hartree]                            -0.0010077141
 OPT| Scaling factor                                                0.0000000000
 OPT| Step size                                                     0.0327936239
 OPT| Trust radius                                                  0.4724315332
 OPT| Decrease in energy                                                      NO
 OPT| Used time [s]                                                        0.027
 OPT|
 OPT| Maximum step size                                             0.0327936239
 OPT| Convergence limit for maximum step size                       0.0030000000
 OPT| Maximum step size is converged                                          NO
 OPT|
 OPT| RMS step size                                                 0.0178838813
 OPT| Convergence limit for RMS step size                           0.0015000000
 OPT| RMS step size is converged                                              NO
 OPT|
 OPT| Maximum gradient                                              0.0086551599
 OPT| Convergence limit for maximum gradient                        0.0004500000
 OPT| Maximum gradient is converged                                           NO
 OPT|
 OPT| RMS gradient                                                  0.0036450303
 OPT| Convergence limit for RMS gradient                            0.0003000000
 OPT| RMS gradient is converged                                               NO
 OPT| **************************************************************************
 OPT| Estimated peak process memory after this step [MiB]                    164

 --------------------------
 OPTIMIZATION STEP:      3
 --------------------------

 Extrapolation method: ASPC

 Number of electrons:                                                         56
 Number of occupied orbitals:                                                 28
 Number of molecular orbitals:                                                52

 Number of orbital functions:                                                 52
 Number of independent orbital functions:                                     52


 SCF WAVEFUNCTION OPTIMIZATION

  Step     Update method      Time    Convergence         Total energy    Change
  ------------------------------------------------------------------------------
     1 TBLite/Diag 0.40E+00    0.0     0.02356494       -30.7004702405 -3.07E+01
     2 TBLite/Diag 0.40E+00    0.0     0.00167419       -30.7004887920 -1.86E-05
     3 TBLite/Diag 0.40E+00    0.0     0.00074775       -30.7004896907 -8.99E-07
     4 TBLite/Diag 0.40E+00    0.0     0.00026804       -30.7004902426 -5.52E-07
     5 TBLite/Diag 0.40E+00    0.0     0.00005315       -30.7004902558 -1.32E-08
     6 TBLite/Diag 0.40E+00    0.0     0.00001450       -30.7004902567 -8.78E-10
     7 TBLite/Diag 0.40E+00    0.0     0.00000091       -30.7004902567 -1.14E-12
     8 TBLite/Diag 0.40E+00    0.0     0.00000060       -30.7004902567 -1.01E-12
     9 TBLite/Diag 0.40E+00    0.0     0.00000010       -30.7004902567 -2.49E-14
    10 TBLite/Diag 0.40E+00    0.0     5.6139E-09       -30.7004902567 -7.11E-15
    11 TBLite/Diag 0.40E+00    0.0     4.9097E-10       -30.7004902567  1.42E-14

  *** SCF run converged in    11 steps ***


  Core Hamiltonian energy:                                    -31.06608546214355
  Repulsive potential energy:                                   0.32347889225424
  Electrostatic energy:                                         0.06379447856305
  Self-consistent dispersion energy:                           -0.02176719124586
  Non-self consistent dispersion energy:                        0.00008902588210
  Correction for halogen bonding:                               0.00000000000000
  Electronic entropic energy:                                  -0.00000000000000
  Fermi energy:                                                -0.01336634131487

  Total energy:                                               -30.70049025669002
  Total energy (extrapolated to T->0):                        -30.70049025669002

 ENERGY| Total FORCE_EVAL ( QS ) energy [hartree]            -30.700490256690021

 OPT| **************************************************************************
 OPT| Step number                                                              3
 OPT| Optimization method                                                   BFGS
 OPT| Total energy [hartree]                                      -30.7004902567
 OPT| Effective energy change [hartree]                            -0.0012089746
 OPT| Predicted energy change [hartree]                            -0.0012020591
 OPT| Scaling factor                                                0.0000000000
 OPT| Step size                                                     0.0188272963
 OPT| Trust radius                                                  0.4724315332
 OPT| Decrease in energy                                                     YES
 OPT| Used time [s]                                                        0.028
 OPT|
 OPT| Maximum step size                                             0.0188272963
 OPT| Convergence limit for maximum step size                       0.0030000000
 OPT| Maximum step size is converged                                          NO
 OPT|
 OPT| RMS step size                                                 0.0110836321
 OPT| Convergence limit for RMS step size                           0.0015000000
 OPT| RMS step size is converged                                              NO
 OPT|
 OPT| Maximum gradient                                              0.0004465401
 OPT| Convergence limit for maximum gradient                        0.0004500000
 OPT| Maximum gradient is converged                                          YES
 OPT|
 OPT| RMS gradient                                                  0.0002435295
 OPT| Convergence limit for RMS gradient                            0.0003000000
 OPT| RMS gradient is converged                                              YES
 OPT| **************************************************************************
 OPT| Estimated peak process memory after this step [MiB]                    164

 --------------------------
 OPTIMIZATION STEP:      4
 --------------------------

 Extrapolation method: ASPC

 Number of electrons:                                                         56
 Number of occupied orbitals:                                                 28
 Number of molecular orbitals:                                                52

 Number of orbital functions:                                                 52
 Number of independent orbital functions:                                     52


 SCF WAVEFUNCTION OPTIMIZATION

  Step     Update method      Time    Convergence         Total energy    Change
  ------------------------------------------------------------------------------
     1 TBLite/Diag 0.40E+00    0.0     0.00075978       -30.7004977872 -3.07E+01
     2 TBLite/Diag 0.40E+00    0.0     0.00007603       -30.7004978436 -5.64E-08
     3 TBLite/Diag 0.40E+00    0.0     0.00003019       -30.7004978491 -5.52E-09
     4 TBLite/Diag 0.40E+00    0.0     0.00001574       -30.7004978503 -1.24E-09
     5 TBLite/Diag 0.40E+00    0.0     0.00000394       -30.7004978504 -4.28E-11
     6 TBLite/Diag 0.40E+00    0.0     0.00000096       -30.7004978504 -3.73E-12
     7 TBLite/Diag 0.40E+00    0.0     0.00000020       -30.7004978504 -1.17E-13
     8 TBLite/Diag 0.40E+00    0.0     0.00000004       -30.7004978504 -1.78E-14
     9 TBLite/Diag 0.40E+00    0.0     4.2949E-09       -30.7004978504 -3.55E-14
    10 TBLite/Diag 0.40E+00    0.0     2.9998E-09       -30.7004978504  3.20E-14
    11 TBLite/Diag 0.40E+00    0.0     1.6952E-10       -30.7004978504  0.00E+00

  *** SCF run converged in    11 steps ***


  Core Hamiltonian energy:                                    -31.06575260417659
  Repulsive potential energy:                                   0.32311160457342
  Electrostatic energy:                                         0.06382514004954
  Self-consistent dispersion energy:                           -0.02177091405072
  Non-self consistent dispersion energy:                        0.00008892320944
  Correction for halogen bonding:                               0.00000000000000
  Electronic entropic energy:                                  -0.00000000000000
  Fermi energy:                                                -0.01308409213634

  Total energy:                                               -30.70049785039490
  Total energy (extrapolated to T->0):                        -30.70049785039490

 ENERGY| Total FORCE_EVAL ( QS ) energy [hartree]            -30.700497850394903

 OPT| **************************************************************************
 OPT| Step number                                                              4
 OPT| Optimization method                                                   BFGS
 OPT| Total energy [hartree]                                      -30.7004978504
 OPT| Effective energy change [hartree]                            -0.0000075937
 OPT| Predicted energy change [hartree]                            -0.0000060527
 OPT| Scaling factor                                                0.0000000000
 OPT| Step size                                                     0.0026912620
 OPT| Trust radius                                                  0.4724315332
 OPT| Decrease in energy                                                     YES
 OPT| Used time [s]                                                        0.028
 OPT|
 OPT| Maximum step size                                             0.0026912620
 OPT| Convergence limit for maximum step size                       0.0030000000
 OPT| Maximum step size is converged                                         YES
 OPT|
 OPT| RMS step size                                                 0.0011966470
 OPT| Convergence limit for RMS step size                           0.0015000000
 OPT| RMS step size is converged                                             YES
 OPT|
 OPT| Maximum gradient                                              0.0001870937
 OPT| Convergence limit for maximum gradient                        0.0004500000
 OPT| Maximum gradient is converged                                          YES
 OPT|
 OPT| RMS gradient                                                  0.0000888571
 OPT| Convergence limit for RMS gradient                            0.0003000000
 OPT| RMS gradient is converged                                              YES
 OPT| **************************************************************************
 OPT| Estimated peak process memory after this step [MiB]                    165

 *******************************************************************************
 ***                    GEOMETRY OPTIMIZATION COMPLETED                      ***
 *******************************************************************************

 write_final_structure: Optimization converged, writing XYZ file gladly:
  hexamine_GFN2_mol_geoopt-FINAL-1_4.xyz

 write_final_structure: Optimization converged, writing CIF file gladly:
  hexamine_GFN2_mol_geoopt-FINAL-1_4.cif

 write_final_structure: Done!

                    Reevaluating energy at the minimum

 Extrapolation method: ASPC

 Number of electrons:                                                         56
 Number of occupied orbitals:                                                 28
 Number of molecular orbitals:                                                52

 Number of orbital functions:                                                 52
 Number of independent orbital functions:                                     52


 SCF WAVEFUNCTION OPTIMIZATION

  Step     Update method      Time    Convergence         Total energy    Change
  ------------------------------------------------------------------------------
     1 TBLite/Diag 0.40E+00    0.0     6.5431E-11       -30.7004978504 -3.07E+01

  *** SCF run converged in     1 steps ***


  Core Hamiltonian energy:                                    -31.06575260417517
  Repulsive potential energy:                                   0.32311160457342
  Electrostatic energy:                                         0.06382514004812
  Self-consistent dispersion energy:                           -0.02177091405070
  Non-self consistent dispersion energy:                        0.00008892320944
  Correction for halogen bonding:                               0.00000000000000
  Electronic entropic energy:                                  -0.00000000000000
  Fermi energy:                                                -0.01308409213867

  Total energy:                                               -30.70049785039490
  Total energy (extrapolated to T->0):                        -30.70049785039490

 ENERGY| Total FORCE_EVAL ( QS ) energy [hartree]            -30.700497850394900

 -------------------------------------------------------------------------------
 -                                                                             -
 -                                DBCSR STATISTICS                             -
 -                                                                             -
 -------------------------------------------------------------------------------
 COUNTER                                    TOTAL       BLAS       SMM       ACC
 flops     1 x    20 x     1                86400       0.0%    100.0%      0.0%     
 flops     1 x    32 x     1               138240       0.0%    100.0%      0.0%     
 flops     4 x    20 x     1               288000       0.0%    100.0%      0.0%     
 flops     1 x    20 x     4               288000       0.0%    100.0%      0.0%     
 flops     4 x    32 x     1               460800       0.0%    100.0%      0.0%     
 flops     1 x    32 x     4               460800       0.0%    100.0%      0.0%     
 flops     1 x     1 x    52               567840       0.0%    100.0%      0.0%     
 flops     4 x    20 x     4               960000       0.0%    100.0%      0.0%     
 flops     4 x    32 x     4              1536000       0.0%    100.0%      0.0%     
 flops     1 x     4 x    52              1718080       0.0%    100.0%      0.0%     
 flops     4 x     1 x    52              1776320       0.0%    100.0%      0.0%     
 flops     4 x     4 x    52              6406400       0.0%    100.0%      0.0%     
 flops inhomo. stacks                           0       0.0%      0.0%      0.0%
 flops total                        14.686880E+06       0.0%    100.0%      0.0%
 flops max/rank                     14.686880E+06       0.0%    100.0%      0.0%
 matmuls inhomo. stacks                         0       0.0%      0.0%      0.0%
 matmuls total                              32230       0.0%    100.0%      0.0%
 number of processed stacks                   400       0.0%    100.0%      0.0%
 average stack size                                     0.0      80.6       0.0
 marketing flops                    14.817920E+06
 -------------------------------------------------------------------------------
 # multiplications                             85
 max memory usage/rank              13.671326E+09
 # max total images/rank                        1
 # max 3D layers                                1
 # MPI messages exchanged                       0
 -------------------------------------------------------------------------------
 -                                                                             -
 -                      DBCSR MESSAGE PASSING PERFORMANCE                      -
 -                                                                             -
 -------------------------------------------------------------------------------
 ROUTINE             CALLS      AVE VOLUME [Bytes]
 MP_Bcast               13                     12.
 MP_Allreduce          438                     10.
 MP_Alltoall          2875                  15839.
 MP_ISend              340                   1656.
 MP_IRecv              340                   1656.
 -------------------------------------------------------------------------------

 -------------------------------------------------------------------------------
 -                                                                             -
 -                          OFFLOAD MEMPOOL STATISTICS                         -
 -                                                                             -
 -------------------------------------------------------------------------------
 Memory consumption                Number of allocations  Used [MiB]  Size [MiB]
 Device                                                1           0           0
 Host                                                  1           0           0
 -------------------------------------------------------------------------------

 MEMORY| Estimated peak process memory [MiB]                                 165

 -------------------------------------------------------------------------------
 -                                                                             -
 -                         MESSAGE PASSING PERFORMANCE                         -
 -                                                                             -
 -------------------------------------------------------------------------------

 ROUTINE             CALLS      AVE VOLUME [Bytes]
 MP_Group                1
 MP_Bcast              134                    223.
 MP_Allreduce         2144                    167.
 MP_Sync                71
 MP_comm_split          70
 -------------------------------------------------------------------------------


 -------------------------------------------------------------------------------
 -                                                                             -
 -                           R E F E R E N C E S                               -
 -                                                                             -
 -------------------------------------------------------------------------------
 
 CP2K version 2026.1 (Development Version), the CP2K developers group (2026).
 CP2K is freely available from https://www.cp2k.org/ .
 
 M. Iannuzzi, J. Wilhelm, F. Stein, A. Bussy, H. Elgabarty, D. Golze, A. Hehn, 
 M. Graml, S. Marek, B. Sertcan Gökmen, C. Schran, H. Forbert, R. Z. 
 Khaliullin, A. Kozhevnikov, M. Taillefumier, R. Meli, V. V. Rybkin, M. Brehm, 
 R. Schade, O. Schütt, J. V. Pototschnig, H. Mirhosseini, A. Knüpfer, D. Marx, 
 M. Krack, J. Hutter, T. D. Kühne.
 J. Phys. Chem. B 130, 1237-1310 (2026).
 The CP2K Program Package Made Simple.
 https://doi.org/10.1021/acs.jpcb.5c05851

 A. Katbashev, M. Stahn, T. Rose, V. Alizadeh, M. Friede, C. Plett, P. 
 Steinbach, S. Ehlert.
 J. Phys. Chem. A 129, 2667-2682 (2025).
 Overview on Building Blocks and Applications of Efficient and Robust Extended 
 Tight Binding.
 https://doi.org/10.1021/acs.jpca.4c08263

 T. D. Kühne, M. Iannuzzi, M. Del Ben, V. V. Rybkin, P. Seewald, F. Stein, T. 
 Laino, R. Z. Khaliullin, O. Schütt, F. Schiffmann, D. Golze, J. Wilhelm, S. 
 Chulkov, M. H. Bani-Hashemian, V. Weber, U. Borstnik, M. Taillefumier, A. S. 
 Jakobovits, A. Lazzaro, H. Pabst, T. Müller, R. Schade, M. Guidon, S. 
 Andermatt, N. Holmberg, G. K. Schenter, A. Hehn, A. Bussy, F. Belleflamme, G. 
 Tabacchi, A. Glöß, M. Lass, I. Bethune, C. J. Mundy, C. Plessl, M. Watkins, 
 J. VandeVondele, M. Krack, J. Hutter.
 J. Chem. Phys. 152, 194103 (2020).
 CP2K: An electronic structure and molecular dynamics software package - 
 Quickstep: Efficient and accurate electronic structure calculations.
 https://doi.org/10.1063/5.0007045

 P. Pracht, E. Caldeweyher, S. Ehlert, S. Grimme.
 ChemRxiv, (2019).
 A Robust Non-Self-Consistent Tight-Binding Quantum Chemistry Method for large 
 Molecules.
 https://doi.org/10.26434/chemrxiv.8326202.v1

 S. Grimme, C. Bannwarth, P. Shushkov.
 J. Chem. Theory Comput. 13, 1989 (2017).
 A Robust and Accurate Tight-Binding Quantum Chemical Method for Structures, 
 Vibrational Frequencies, and Noncovalent Interactions of Large Molecular 
 Systems Parametrized for All spd-Block Elements (Z = 1-86).
 https://doi.org/10.1021/acs.jctc.7b00118

 O. Schuett, P. Messmer, J. Hutter, J. VandeVondele.
 Electronic Structure Calculations on Graphics Processing Units, 173-190 (2016).
 GPU-Accelerated Sparse Matrix-Matrix Multiplication for Linear Scaling Density 
 Functional Theory.
 https://doi.org/10.1002/9781118670712.ch8

 A. Heinecke, G. Henry, M. Hutchinson, H. Pabst.
 Proceedings of Intl. Supercomputing Conference, 981-991 (2016).
 LIBXSMM: Accelerating Small Matrix Multiplications by Runtime Code Generation.
 https://doi.org/10.1109/SC.2016.83

 U. Borstnik, J. VandeVondele, V. Weber, J. Hutter.
 Parallel Comput. 40, 47-58 (2014).
 Sparse matrix multiplication: The distributed block-compressed sparse row 
 library.
 https://doi.org/10.1016/j.parco.2014.03.012

 T. D. Kühne, M. Krack, F. R. Mohamed, M. Parrinello.
 Phys. Rev. Lett. 98, 066401 (2007).
 Efficient and accurate Car-Parrinello-like approach to Born-Oppenheimer 
 molecular dynamics.
 https://doi.org/10.1103/PhysRevLett.98.066401

 M. Frigo, S. G. Johnson.
 Proc. IEEE 93, 216-231 (2005).
 The design and implementation of FFTW3.
 https://doi.org/10.1109/JPROC.2004.840301

 J. Kolafa.
 J. Comput. Chem. 25, 335-342 (2004).
 Time-reversible always stable predictor-corrector method for molecular dynamics 
 of polarizable molecules.
 https://doi.org/10.1002/jcc.10385

 N. D. Mermin.
 Phys. Rev. 137, A1441-A1443 (1965).
 Thermal Properties of the Inhomogeneous Electron Gas.
 https://doi.org/10.1103/PhysRev.137.A1441


 -------------------------------------------------------------------------------
 -                                                                             -
 -                                T I M I N G                                  -
 -                                                                             -
 -------------------------------------------------------------------------------
 SUBROUTINE                       CALLS  ASD         SELF TIME        TOTAL TIME
                                MAXIMUM       AVERAGE  MAXIMUM  AVERAGE  MAXIMUM
 CP2K                                 1  1.0    0.002    0.002    0.157    0.157
 cp_geo_opt                           1  2.0    0.000    0.000    0.152    0.152
 geoopt_bfgs                          1  3.0    0.001    0.001    0.152    0.152
 cp_eval_at                           6  4.0    0.000    0.000    0.147    0.147
 qs_forces                            5  5.0    0.000    0.000    0.140    0.140
 qs_energies                          6  5.8    0.000    0.000    0.124    0.124
 scf_env_do_scf                       6  6.8    0.000    0.000    0.100    0.100
 scf_env_do_scf_inner_loop           60  8.0    0.014    0.014    0.100    0.100
 qs_scf_new_mos                      60  9.0    0.000    0.000    0.055    0.055
 rebuild_ks_matrix                   65  9.8    0.000    0.000    0.036    0.036
 build_tblite_ks_matrix              65 10.8    0.035    0.035    0.035    0.035
 qs_ks_update_qs_env                 60  9.0    0.000    0.000    0.027    0.027
 cp_dbcsr_plus_fm_fm_t               70 10.8    0.000    0.000    0.025    0.025
 calculate_dm_sparse                 65 10.0    0.000    0.000    0.024    0.024
 build_tblite_matrices               11  7.0    0.010    0.010    0.023    0.023
 dbcsr_multiply_generic              85 11.9    0.001    0.001    0.021    0.021
 copy_dbcsr_to_fm                   135 10.4    0.000    0.000    0.017    0.017
 dbcsr_complete_redistribute        290 12.2    0.011    0.011    0.016    0.016
 eigensolver                         60 10.0    0.001    0.001    0.013    0.013
 cp_fm_syevd                         70 10.6    0.000    0.000    0.013    0.013
 tb_get_multipole                    11  8.0    0.010    0.010    0.012    0.012
 qs_energies_init_hamiltonians        6  6.8    0.000    0.000    0.012    0.012
 make_m2s                           170 12.9    0.001    0.001    0.010    0.010
 cp_fm_syevd_base                    70 11.6    0.010    0.010    0.010    0.010
 init_scf_run                         6  6.8    0.000    0.000    0.010    0.010
 qs_diis_b_step                      54 10.0    0.000    0.000    0.010    0.010
 qs_ks_update_qs_env_forces           5  6.0    0.000    0.000    0.010    0.010
 scf_env_initial_rho_setup            6  7.8    0.000    0.000    0.009    0.009
 wfi_extrapolate                      6  8.8    0.000    0.000    0.009    0.009
 copy_fm_to_dbcsr                   155 11.8    0.000    0.000    0.007    0.007
 multiply_cannon                     85 12.9    0.002    0.002    0.006    0.006
 cp_dbcsr_sm_fm_multiply             15 10.3    0.000    0.000    0.005    0.005
 make_images                        170 13.9    0.001    0.001    0.005    0.005
 dbcsr_desymmetrize_deep            135 11.4    0.003    0.003    0.005    0.005
 dbcsr_finalize                    1671 12.0    0.001    0.001    0.004    0.004
 reorthogonalize_vectors              5  9.8    0.000    0.000    0.003    0.003
 make_basis_lowdin                    5 10.8    0.000    0.000    0.003    0.003
 cp_dbcsr_sm_fm_multiply_core        15 11.3    0.000    0.000    0.003    0.003
 -------------------------------------------------------------------------------

 The number of warnings for this run is : 0
 
 -------------------------------------------------------------------------------
  **** **** ******  **  PROGRAM ENDED AT                 2026-05-23 22:46:20.969
 ***** ** ***  *** **   PROGRAM RAN ON                                spark-c86c
 **    ****   ******    PROGRAM RAN BY                                  kuehne88
 ***** **    ** ** **   PROGRAM PROCESS ID                               2227435
  **** **  *******  **  PROGRAM STOPPED IN /home/kuehne88/periodic-gfn2-benchmar
                                           ks/X23b/runs/molecule_geoopt/GFN2/hex
                                           amine_GFN2_mol_geoopt
