 DBCSR| CPU Multiplication driver                                           XSMM (U)
 DBCSR| Multrec recursion limit                                              512 (U)
 DBCSR| Multiplication stack size                                           1000 (D)
 DBCSR| Maximum elements for images                                    UNLIMITED (U)
 DBCSR| Multiplicative factor virtual images                                   1 (U)
 DBCSR| Use multiplication densification                                       T (D)
 DBCSR| Multiplication size stacks                                             3 (U)
 DBCSR| Use memory pool for CPU allocation                                     F (U)
 DBCSR| Number of 3D layers                                               SINGLE (U)
 DBCSR| Use MPI memory allocation                                              F (U)
 DBCSR| Use RMA algorithm                                                      F (U)
 DBCSR| Use Communication thread                                               T (U)
 DBCSR| Communication thread load                                             87 (D)
 DBCSR| MPI: My process id                                                     0
 DBCSR| MPI: Number of processes                                               1
 DBCSR| OMP: Current number of threads                                         1
 DBCSR| OMP: Max number of threads                                             1
 DBCSR| Split modifier for TAS multiplication algorithm                  1.0E+00 (U)


  **** **** ******  **  PROGRAM STARTED AT               2026-05-23 22:46:20.880
 ***** ** ***  *** **   PROGRAM STARTED ON                            spark-c86c
 **    ****   ******    PROGRAM STARTED BY                              kuehne88
 ***** **    ** ** **   PROGRAM PROCESS ID                               2229817
  **** **  *******  **  PROGRAM STARTED IN /home/kuehne88/periodic-gfn2-benchmar
                                           ks/X23b/runs/molecule_geoopt/GFN2/ura
                                           cil_GFN2_mol_geoopt

 CP2K| version string:                 CP2K version 2026.1 (Development Version)
 CP2K| source code revision number:                                   0622d442e4
 CP2K| cp2kflags: omp fftw3 libxc parallel scalapack mpi_f08 xsmm spglib libdftd
 CP2K|            4 dftd4_v3 mctc-lib tblite
 CP2K| is freely available from                            https://www.cp2k.org/
 CP2K| Program compiled at                                   2026-05-23 22:05:08
 CP2K| Program compiled on                                            spark-c86c
 CP2K| Program compiled for                                              aarch64
 CP2K| Data directory path    /home/kuehne88/cp2k-master-tblite-20260523/install
 CP2K| Input file name                                uracil_GFN2_mol_geoopt.inp

 GLOBAL| Force Environment number                                              1
 GLOBAL| Basis set file name                                           BASIS_SET
 GLOBAL| Potential file name                                           POTENTIAL
 GLOBAL| MM Potential file name                                     MM_POTENTIAL
 GLOBAL| Coordinate file name                                      __STD_INPUT__
 GLOBAL| Method name                                                        CP2K
 GLOBAL| Project name                                     uracil_GFN2_mol_geoopt
 GLOBAL| Run type                                                        GEO_OPT
 GLOBAL| FFT library                                                       FFTW3
 GLOBAL| Diagonalization library                                       ScaLAPACK
 GLOBAL| Cholesky decomposition library                                ScaLAPACK
 GLOBAL| DGEMM library                                                      BLAS
 GLOBAL| Direct generalized diagonalization requested                          F
 GLOBAL| Orthonormality check for eigenvectors                          DISABLED
 GLOBAL| Matrix multiplication library                                 ScaLAPACK
 GLOBAL| All-to-all communication in single precision                          F
 GLOBAL| FFTs using library dependent lengths                                  F
 GLOBAL| Grid backend                                                       AUTO
 GLOBAL| Global print level                                                  LOW
 GLOBAL| MPI I/O enabled                                                       T
 GLOBAL| Total number of message passing processes                             1
 GLOBAL| Number of distributed systems (nodes)                                 1
 GLOBAL| Number of threads for this process                                    1
 GLOBAL| This output is from process                                           0
 GLOBAL| OpenMP stack size per thread (OMP_STACKSIZE)                    default
 GLOBAL| CPU model name                                                  UNKNOWN
 GLOBAL| CPUID                                                              2200
 GLOBAL| Compiled for CPUID                                                 2000

 *** HINT in environment.F:970 :: The compiler target flags (arm_arch64)   ***
 *** used to build this binary cannot exploit all extensions of this CPU   ***
 *** model (arm_sve256). Consider compiler target flags as part of FCFLAGS ***
 *** and CFLAGS (ARCH file).                                               ***


 MEMORY| system memory details [Kb]
 MEMORY|                        rank 0           min           max       average
 MEMORY| MemTotal            125508532     125508532     125508532     125508532
 MEMORY| MemFree             106210884     106210884     106210884     106210884
 MEMORY| Buffers                866408        866408        866408        866408
 MEMORY| Cached               13218544      13218544      13218544      13218544
 MEMORY| Slab                  1564772       1564772       1564772       1564772
 MEMORY| SReclaimable           889004        889004        889004        889004
 MEMORY| MemLikelyFree       121184840     121184840     121184840     121184840


 GENERATE|  Preliminary Number of Bonds generated:                             0
 GENERATE|  Achieved consistency in connectivity generation.


                  #####   #####        #     #   #     #       #          
                 #     # #     #      #    ##### #     #   # #####  ####  
                 #     # #           #       #   ###   #       #   #    # 
                 #     #  #####     #        #   #  #  #   #   #   ###### 
                 #   # #       #   #         #   #   # #   #   #   #      
                 #    #  #     #  #          #   #  #  # # #   #    #   # 
                  #### #  #####  #           #   ###   ##  #   #     ###  

                                   GFN2-xTB  
                                 Version 0.0                       
                            Johann V. Pototschnig                  



 TOTAL NUMBERS AND MAXIMUM NUMBERS

  Total number of            - Atomic kinds:                                   4
                             - Atoms:                                         12
                             - Shell sets:                                    20
                             - Shells:                                        20
                             - Primitive Cartesian functions:                 76
                             - Cartesian basis functions:                     36
                             - Spherical basis functions:                     36

  Maximum angular momentum of the orbital basis functions:                     1


 SCF PARAMETERS         Density guess:                                     MOPAC
                        --------------------------------------------------------
                        max_scf:                                             300
                        max_scf_history:                                       0
                        max_diis:                                              4
                        --------------------------------------------------------
                        eps_scf:                                        1.00E-09
                        eps_scf_history:                                0.00E+00
                        eps_diis:                                       1.00E-01
                        eps_eigval:                                     1.00E-05
                        --------------------------------------------------------
                        level_shift [a.u.]:                             0.000000
                        added MOs                                        15    0
                        --------------------------------------------------------
                        Mixing method:                           DIRECT_P_MIXING
                        --------------------------------------------------------
                        Smear method:                                FERMI_DIRAC
                        Electronic temperature [K]:                        300.0
                        Electronic temperature [a.u.]:                  9.50E-04
                        Accuracy threshold:                             1.00E-06
                        --------------------------------------------------------
                        No outer SCF

 BFGS| Use rational function optimization for step estimation:                NO
 BFGS| Use model Hessian for initial guess:                                  YES
 BFGS| Restart Hessian:                                                       NO
 BFGS| Trust radius:                                                       0.472

 *******************************************************************************
 ***                     STARTING GEOMETRY OPTIMIZATION                      ***
 ***                                   BFGS                                  ***
 *******************************************************************************

 Extrapolation method: initial_guess

 Number of electrons:                                                         42
 Number of occupied orbitals:                                                 21
 Number of molecular orbitals:                                                36

 Number of orbital functions:                                                 36
 Number of independent orbital functions:                                     36


 SCF WAVEFUNCTION OPTIMIZATION

  Step     Update method      Time    Convergence         Total energy    Change
  ------------------------------------------------------------------------------
     1 TBLite/Diag 0.40E+00    0.0     1.04826380       -24.2877272329 -2.43E+01
     2 TBLite/Diag 0.40E+00    0.0     0.43895516       -24.5901499293 -3.02E-01
     3 TBLite/Diag 0.40E+00    0.0     0.20774848       -24.6013195120 -1.12E-02
     4 TBLite/Diag 0.40E+00    0.0     0.19307309       -24.6052062747 -3.89E-03
     5 TBLite/Diag 0.40E+00    0.0     0.10420837       -24.6129152816 -7.71E-03
     6 TBLite/Diag 0.40E+00    0.0     0.01800791       -24.6131899468 -2.75E-04
     7 TBLite/Diag 0.40E+00    0.0     0.00704080       -24.6132958643 -1.06E-04
     8 TBLite/Diag 0.40E+00    0.0     0.00232589       -24.6132953953  4.69E-07
     9 TBLite/Diag 0.40E+00    0.0     0.00130874       -24.6132970493 -1.65E-06
    10 TBLite/Diag 0.40E+00    0.0     0.00014679       -24.6132970964 -4.72E-08
    11 TBLite/Diag 0.40E+00    0.0     0.00013707       -24.6132970852  1.13E-08
    12 TBLite/Diag 0.40E+00    0.0     0.00012457       -24.6132971009 -1.57E-08
    13 TBLite/Diag 0.40E+00    0.0     0.00002730       -24.6132971015 -6.35E-10
    14 TBLite/Diag 0.40E+00    0.0     0.00000542       -24.6132971015 -3.59E-11
    15 TBLite/Diag 0.40E+00    0.0     0.00000046       -24.6132971015 -6.08E-13
    16 TBLite/Diag 0.40E+00    0.0     0.00000041       -24.6132971015 -1.85E-13
    17 TBLite/Diag 0.40E+00    0.0     0.00000006       -24.6132971015 -7.11E-15
    18 TBLite/Diag 0.40E+00    0.0     0.00000003       -24.6132971015  1.07E-14
    19 TBLite/Diag 0.40E+00    0.0     0.00000002       -24.6132971015 -1.78E-14
    20 TBLite/Diag 0.40E+00    0.0     1.0469E-09       -24.6132971015  1.07E-14
    21 TBLite/Diag 0.40E+00    0.0     1.1374E-10       -24.6132971015  1.07E-14

  *** SCF run converged in    21 steps ***


  Core Hamiltonian energy:                                    -24.95873226856141
  Repulsive potential energy:                                   0.27335693203376
  Electrostatic energy:                                         0.08074535703038
  Self-consistent dispersion energy:                           -0.00867773636536
  Non-self consistent dispersion energy:                        0.00001061431650
  Correction for halogen bonding:                               0.00000000000000
  Electronic entropic energy:                                  -0.00000000000000
  Fermi energy:                                                -0.31700424473487

  Total energy:                                               -24.61329710154614
  Total energy (extrapolated to T->0):                        -24.61329710154614

 ENERGY| Total FORCE_EVAL ( QS ) energy [hartree]            -24.613297101546138

 OPT| **************************************************************************
 OPT| Step number                                                              0
 OPT| Optimization method                                                   BFGS
 OPT| Total energy [hartree]                                      -24.6132971015
 OPT| Used time [s]                                                        0.024
 OPT| **************************************************************************
 OPT| Estimated peak process memory [MiB]                                    163

 --------------------------
 OPTIMIZATION STEP:      1
 --------------------------

 Extrapolation method: ASPC

 Number of electrons:                                                         42
 Number of occupied orbitals:                                                 21
 Number of molecular orbitals:                                                36

 Number of orbital functions:                                                 36
 Number of independent orbital functions:                                     36


 SCF WAVEFUNCTION OPTIMIZATION

  Step     Update method      Time    Convergence         Total energy    Change
  ------------------------------------------------------------------------------
     1 TBLite/Diag 0.40E+00    0.0     0.02073012       -24.6147694694 -2.46E+01
     2 TBLite/Diag 0.40E+00    0.0     0.00963165       -24.6148212723 -5.18E-05
     3 TBLite/Diag 0.40E+00    0.0     0.00765280       -24.6148238688 -2.60E-06
     4 TBLite/Diag 0.40E+00    0.0     0.00543659       -24.6148354755 -1.16E-05
     5 TBLite/Diag 0.40E+00    0.0     0.00186108       -24.6148383845 -2.91E-06
     6 TBLite/Diag 0.40E+00    0.0     0.00019054       -24.6148384150 -3.06E-08
     7 TBLite/Diag 0.40E+00    0.0     0.00010571       -24.6148384260 -1.10E-08
     8 TBLite/Diag 0.40E+00    0.0     0.00002938       -24.6148384265 -4.68E-10
     9 TBLite/Diag 0.40E+00    0.0     0.00000833       -24.6148384266 -1.05E-10
    10 TBLite/Diag 0.40E+00    0.0     0.00000304       -24.6148384266 -1.54E-11
    11 TBLite/Diag 0.40E+00    0.0     0.00000126       -24.6148384266 -2.34E-12
    12 TBLite/Diag 0.40E+00    0.0     0.00000012       -24.6148384266 -2.49E-14
    13 TBLite/Diag 0.40E+00    0.0     0.00000004       -24.6148384266 -1.78E-14
    14 TBLite/Diag 0.40E+00    0.0     9.3626E-09       -24.6148384266  1.78E-14
    15 TBLite/Diag 0.40E+00    0.0     2.3849E-09       -24.6148384266  0.00E+00
    16 TBLite/Diag 0.40E+00    0.0     2.3449E-10       -24.6148384266 -1.78E-14

  *** SCF run converged in    16 steps ***


  Core Hamiltonian energy:                                    -24.97541181509848
  Repulsive potential energy:                                   0.28939480686237
  Electrostatic energy:                                         0.07989017932778
  Self-consistent dispersion energy:                           -0.00872193952985
  Non-self consistent dispersion energy:                        0.00001034183395
  Correction for halogen bonding:                               0.00000000000000
  Electronic entropic energy:                                  -0.00000000000000
  Fermi energy:                                                -0.31336481425967

  Total energy:                                               -24.61483842660423
  Total energy (extrapolated to T->0):                        -24.61483842660423

 ENERGY| Total FORCE_EVAL ( QS ) energy [hartree]            -24.614838426604230

 OPT| **************************************************************************
 OPT| Step number                                                              1
 OPT| Optimization method                                                   BFGS
 OPT| Total energy [hartree]                                      -24.6148384266
 OPT| Effective energy change [hartree]                            -0.0015413251
 OPT| Predicted energy change [hartree]                            -0.0013214934
 OPT| Scaling factor                                                0.0000000000
 OPT| Step size                                                     0.0494838973
 OPT| Trust radius                                                  0.4724315332
 OPT| Decrease in energy                                                     YES
 OPT| Used time [s]                                                        0.019
 OPT|
 OPT| Maximum step size                                             0.0494838973
 OPT| Convergence limit for maximum step size                       0.0030000000
 OPT| Maximum step size is converged                                          NO
 OPT|
 OPT| RMS step size                                                 0.0156326524
 OPT| Convergence limit for RMS step size                           0.0015000000
 OPT| RMS step size is converged                                              NO
 OPT|
 OPT| Maximum gradient                                              0.0048853870
 OPT| Convergence limit for maximum gradient                        0.0004500000
 OPT| Maximum gradient is converged                                           NO
 OPT|
 OPT| RMS gradient                                                  0.0019766917
 OPT| Convergence limit for RMS gradient                            0.0003000000
 OPT| RMS gradient is converged                                               NO
 OPT| **************************************************************************
 OPT| Estimated peak process memory after this step [MiB]                    163

 --------------------------
 OPTIMIZATION STEP:      2
 --------------------------

 Extrapolation method: ASPC

 Number of electrons:                                                         42
 Number of occupied orbitals:                                                 21
 Number of molecular orbitals:                                                36

 Number of orbital functions:                                                 36
 Number of independent orbital functions:                                     36


 SCF WAVEFUNCTION OPTIMIZATION

  Step     Update method      Time    Convergence         Total energy    Change
  ------------------------------------------------------------------------------
     1 TBLite/Diag 0.40E+00    0.0     0.00851807       -24.6149153564 -2.46E+01
     2 TBLite/Diag 0.40E+00    0.0     0.00438782       -24.6149210427 -5.69E-06
     3 TBLite/Diag 0.40E+00    0.0     0.00405957       -24.6149189956  2.05E-06
     4 TBLite/Diag 0.40E+00    0.0     0.00282140       -24.6149234276 -4.43E-06
     5 TBLite/Diag 0.40E+00    0.0     0.00052979       -24.6149237138 -2.86E-07
     6 TBLite/Diag 0.40E+00    0.0     0.00004586       -24.6149237154 -1.65E-09
     7 TBLite/Diag 0.40E+00    0.0     0.00003424       -24.6149237162 -8.05E-10
     8 TBLite/Diag 0.40E+00    0.0     0.00000616       -24.6149237163 -4.32E-11
     9 TBLite/Diag 0.40E+00    0.0     0.00000151       -24.6149237163 -3.57E-12
    10 TBLite/Diag 0.40E+00    0.0     0.00000065       -24.6149237163 -8.10E-13
    11 TBLite/Diag 0.40E+00    0.0     0.00000026       -24.6149237163 -1.28E-13
    12 TBLite/Diag 0.40E+00    0.0     0.00000002       -24.6149237163  0.00E+00
    13 TBLite/Diag 0.40E+00    0.0     0.00000001       -24.6149237163  0.00E+00
    14 TBLite/Diag 0.40E+00    0.0     2.3655E-09       -24.6149237163  3.55E-15
    15 TBLite/Diag 0.40E+00    0.0     1.4696E-09       -24.6149237163 -1.42E-14
    16 TBLite/Diag 0.40E+00    0.0     6.8571E-11       -24.6149237163  1.78E-14

  *** SCF run converged in    16 steps ***


  Core Hamiltonian energy:                                    -24.98047099546670
  Repulsive potential energy:                                   0.29460803889237
  Electrostatic energy:                                         0.07966288355207
  Self-consistent dispersion energy:                           -0.00873388131384
  Non-self consistent dispersion energy:                        0.00001023804904
  Correction for halogen bonding:                               0.00000000000000
  Electronic entropic energy:                                  -0.00000000000000
  Fermi energy:                                                -0.31199790394835

  Total energy:                                               -24.61492371628706
  Total energy (extrapolated to T->0):                        -24.61492371628706

 ENERGY| Total FORCE_EVAL ( QS ) energy [hartree]            -24.614923716287059

 OPT| **************************************************************************
 OPT| Step number                                                              2
 OPT| Optimization method                                                   BFGS
 OPT| Total energy [hartree]                                      -24.6149237163
 OPT| Effective energy change [hartree]                            -0.0000852897
 OPT| Predicted energy change [hartree]                            -0.0001361090
 OPT| Scaling factor                                                0.0000000000
 OPT| Step size                                                     0.0151343554
 OPT| Trust radius                                                  0.4724315332
 OPT| Decrease in energy                                                     YES
 OPT| Used time [s]                                                        0.019
 OPT|
 OPT| Maximum step size                                             0.0151343554
 OPT| Convergence limit for maximum step size                       0.0030000000
 OPT| Maximum step size is converged                                          NO
 OPT|
 OPT| RMS step size                                                 0.0061849962
 OPT| Convergence limit for RMS step size                           0.0015000000
 OPT| RMS step size is converged                                              NO
 OPT|
 OPT| Maximum gradient                                              0.0021058358
 OPT| Convergence limit for maximum gradient                        0.0004500000
 OPT| Maximum gradient is converged                                           NO
 OPT|
 OPT| RMS gradient                                                  0.0007754459
 OPT| Convergence limit for RMS gradient                            0.0003000000
 OPT| RMS gradient is converged                                               NO
 OPT| **************************************************************************
 OPT| Estimated peak process memory after this step [MiB]                    163

 --------------------------
 OPTIMIZATION STEP:      3
 --------------------------

 Extrapolation method: ASPC

 Number of electrons:                                                         42
 Number of occupied orbitals:                                                 21
 Number of molecular orbitals:                                                36

 Number of orbital functions:                                                 36
 Number of independent orbital functions:                                     36


 SCF WAVEFUNCTION OPTIMIZATION

  Step     Update method      Time    Convergence         Total energy    Change
  ------------------------------------------------------------------------------
     1 TBLite/Diag 0.40E+00    0.0     0.00275304       -24.6149454741 -2.46E+01
     2 TBLite/Diag 0.40E+00    0.0     0.00072349       -24.6149460043 -5.30E-07
     3 TBLite/Diag 0.40E+00    0.0     0.00028734       -24.6149460193 -1.50E-08
     4 TBLite/Diag 0.40E+00    0.0     0.00020709       -24.6149460695 -5.01E-08
     5 TBLite/Diag 0.40E+00    0.0     0.00004089       -24.6149460700 -5.69E-10
     6 TBLite/Diag 0.40E+00    0.0     0.00003249       -24.6149460704 -3.86E-10
     7 TBLite/Diag 0.40E+00    0.0     0.00002027       -24.6149460706 -1.81E-10
     8 TBLite/Diag 0.40E+00    0.0     0.00000502       -24.6149460706 -2.33E-11
     9 TBLite/Diag 0.40E+00    0.0     0.00000097       -24.6149460706 -1.65E-12
    10 TBLite/Diag 0.40E+00    0.0     0.00000027       -24.6149460706 -1.42E-13
    11 TBLite/Diag 0.40E+00    0.0     0.00000011       -24.6149460706  1.42E-14
    12 TBLite/Diag 0.40E+00    0.0     0.00000003       -24.6149460706 -7.11E-15
    13 TBLite/Diag 0.40E+00    0.0     0.00000002       -24.6149460706 -2.84E-14
    14 TBLite/Diag 0.40E+00    0.0     3.5839E-09       -24.6149460706  1.07E-14
    15 TBLite/Diag 0.40E+00    0.0     3.8330E-10       -24.6149460706  1.42E-14

  *** SCF run converged in    15 steps ***


  Core Hamiltonian energy:                                    -24.97990569387856
  Repulsive potential energy:                                   0.29396381759501
  Electrostatic energy:                                         0.07971882979797
  Self-consistent dispersion energy:                           -0.00873327059168
  Non-self consistent dispersion energy:                        0.00001024646045
  Correction for halogen bonding:                               0.00000000000000
  Electronic entropic energy:                                  -0.00000000000000
  Fermi energy:                                                -0.31198826322641

  Total energy:                                               -24.61494607061680
  Total energy (extrapolated to T->0):                        -24.61494607061680

 ENERGY| Total FORCE_EVAL ( QS ) energy [hartree]            -24.614946070616799

 OPT| **************************************************************************
 OPT| Step number                                                              3
 OPT| Optimization method                                                   BFGS
 OPT| Total energy [hartree]                                      -24.6149460706
 OPT| Effective energy change [hartree]                            -0.0000223543
 OPT| Predicted energy change [hartree]                            -0.0000236050
 OPT| Scaling factor                                                0.0000000000
 OPT| Step size                                                     0.0055090858
 OPT| Trust radius                                                  0.4724315332
 OPT| Decrease in energy                                                     YES
 OPT| Used time [s]                                                        0.018
 OPT|
 OPT| Maximum step size                                             0.0055090858
 OPT| Convergence limit for maximum step size                       0.0030000000
 OPT| Maximum step size is converged                                          NO
 OPT|
 OPT| RMS step size                                                 0.0024094482
 OPT| Convergence limit for RMS step size                           0.0015000000
 OPT| RMS step size is converged                                              NO
 OPT|
 OPT| Maximum gradient                                              0.0006542760
 OPT| Convergence limit for maximum gradient                        0.0004500000
 OPT| Maximum gradient is converged                                           NO
 OPT|
 OPT| RMS gradient                                                  0.0002333316
 OPT| Convergence limit for RMS gradient                            0.0003000000
 OPT| RMS gradient is converged                                              YES
 OPT| **************************************************************************
 OPT| Estimated peak process memory after this step [MiB]                    163

 --------------------------
 OPTIMIZATION STEP:      4
 --------------------------

 Extrapolation method: ASPC

 Number of electrons:                                                         42
 Number of occupied orbitals:                                                 21
 Number of molecular orbitals:                                                36

 Number of orbital functions:                                                 36
 Number of independent orbital functions:                                     36


 SCF WAVEFUNCTION OPTIMIZATION

  Step     Update method      Time    Convergence         Total energy    Change
  ------------------------------------------------------------------------------
     1 TBLite/Diag 0.40E+00    0.0     0.00113607       -24.6149471684 -2.46E+01
     2 TBLite/Diag 0.40E+00    0.0     0.00025847       -24.6149472269 -5.85E-08
     3 TBLite/Diag 0.40E+00    0.0     0.00025791       -24.6149472208  6.05E-09
     4 TBLite/Diag 0.40E+00    0.0     0.00021938       -24.6149472360 -1.52E-08
     5 TBLite/Diag 0.40E+00    0.0     0.00007992       -24.6149472409 -4.93E-09
     6 TBLite/Diag 0.40E+00    0.0     0.00000337       -24.6149472409 -1.08E-11
     7 TBLite/Diag 0.40E+00    0.0     0.00000149       -24.6149472409 -4.34E-12
     8 TBLite/Diag 0.40E+00    0.0     0.00000047       -24.6149472409 -5.44E-13
     9 TBLite/Diag 0.40E+00    0.0     0.00000023       -24.6149472409 -6.39E-14
    10 TBLite/Diag 0.40E+00    0.0     0.00000008       -24.6149472409 -2.49E-14
    11 TBLite/Diag 0.40E+00    0.0     0.00000002       -24.6149472409 -1.42E-14
    12 TBLite/Diag 0.40E+00    0.0     0.00000001       -24.6149472409  2.49E-14
    13 TBLite/Diag 0.40E+00    0.0     2.3663E-09       -24.6149472409 -1.42E-14
    14 TBLite/Diag 0.40E+00    0.0     6.1429E-10       -24.6149472409  1.42E-14

  *** SCF run converged in    14 steps ***


  Core Hamiltonian energy:                                    -24.97958739962824
  Repulsive potential energy:                                   0.29360649647202
  Electrostatic energy:                                         0.07975591779326
  Self-consistent dispersion energy:                           -0.00873250750566
  Non-self consistent dispersion energy:                        0.00001025195482
  Correction for halogen bonding:                               0.00000000000000
  Electronic entropic energy:                                  -0.00000000000000
  Fermi energy:                                                -0.31204155403943

  Total energy:                                               -24.61494724091380
  Total energy (extrapolated to T->0):                        -24.61494724091380

 ENERGY| Total FORCE_EVAL ( QS ) energy [hartree]            -24.614947240913796

 OPT| **************************************************************************
 OPT| Step number                                                              4
 OPT| Optimization method                                                   BFGS
 OPT| Total energy [hartree]                                      -24.6149472409
 OPT| Effective energy change [hartree]                            -0.0000011703
 OPT| Predicted energy change [hartree]                            -0.0000011329
 OPT| Scaling factor                                                0.0000000000
 OPT| Step size                                                     0.0014892694
 OPT| Trust radius                                                  0.4724315332
 OPT| Decrease in energy                                                     YES
 OPT| Used time [s]                                                        0.018
 OPT|
 OPT| Maximum step size                                             0.0014892694
 OPT| Convergence limit for maximum step size                       0.0030000000
 OPT| Maximum step size is converged                                         YES
 OPT|
 OPT| RMS step size                                                 0.0005014111
 OPT| Convergence limit for RMS step size                           0.0015000000
 OPT| RMS step size is converged                                             YES
 OPT|
 OPT| Maximum gradient                                              0.0003791415
 OPT| Convergence limit for maximum gradient                        0.0004500000
 OPT| Maximum gradient is converged                                          YES
 OPT|
 OPT| RMS gradient                                                  0.0000937930
 OPT| Convergence limit for RMS gradient                            0.0003000000
 OPT| RMS gradient is converged                                              YES
 OPT| **************************************************************************
 OPT| Estimated peak process memory after this step [MiB]                    163

 *******************************************************************************
 ***                    GEOMETRY OPTIMIZATION COMPLETED                      ***
 *******************************************************************************

 write_final_structure: Optimization converged, writing XYZ file gladly:
  uracil_GFN2_mol_geoopt-FINAL-1_4.xyz

 write_final_structure: Optimization converged, writing CIF file gladly:
  uracil_GFN2_mol_geoopt-FINAL-1_4.cif

 write_final_structure: Done!

                    Reevaluating energy at the minimum

 Extrapolation method: ASPC

 Number of electrons:                                                         42
 Number of occupied orbitals:                                                 21
 Number of molecular orbitals:                                                36

 Number of orbital functions:                                                 36
 Number of independent orbital functions:                                     36


 SCF WAVEFUNCTION OPTIMIZATION

  Step     Update method      Time    Convergence         Total energy    Change
  ------------------------------------------------------------------------------
     1 TBLite/Diag 0.40E+00    0.0     3.0924E-10       -24.6149472409 -2.46E+01

  *** SCF run converged in     1 steps ***


  Core Hamiltonian energy:                                    -24.97958739963907
  Repulsive potential energy:                                   0.29360649647202
  Electrostatic energy:                                         0.07975591780396
  Self-consistent dispersion energy:                           -0.00873250750553
  Non-self consistent dispersion energy:                        0.00001025195482
  Correction for halogen bonding:                               0.00000000000000
  Electronic entropic energy:                                  -0.00000000000000
  Fermi energy:                                                -0.31204155403693

  Total energy:                                               -24.61494724091380
  Total energy (extrapolated to T->0):                        -24.61494724091380

 ENERGY| Total FORCE_EVAL ( QS ) energy [hartree]            -24.614947240913800

 -------------------------------------------------------------------------------
 -                                                                             -
 -                                DBCSR STATISTICS                             -
 -                                                                             -
 -------------------------------------------------------------------------------
 COUNTER                                    TOTAL       BLAS       SMM       ACC
 flops     1 x     4 x     1                 1920       0.0%    100.0%      0.0%     
 flops     1 x    32 x     1                15360       0.0%    100.0%      0.0%     
 flops     1 x     4 x     4                15360       0.0%    100.0%      0.0%     
 flops     4 x     4 x     1                15360       0.0%    100.0%      0.0%     
 flops     1 x     1 x    36                66960       0.0%    100.0%      0.0%     
 flops     1 x    32 x     4               122880       0.0%    100.0%      0.0%     
 flops     4 x    32 x     1               122880       0.0%    100.0%      0.0%     
 flops     4 x     4 x     4               122880       0.0%    100.0%      0.0%     
 flops     1 x     4 x    36               428544       0.0%    100.0%      0.0%     
 flops     4 x     1 x    36               428544       0.0%    100.0%      0.0%     
 flops     4 x    32 x     4               983040       0.0%    100.0%      0.0%     
 flops     4 x     4 x    36              3856896       0.0%    100.0%      0.0%     
 flops inhomo. stacks                           0       0.0%      0.0%      0.0%
 flops total                         6.180624E+06       0.0%    100.0%      0.0%
 flops max/rank                      6.180624E+06       0.0%    100.0%      0.0%
 matmuls inhomo. stacks                         0       0.0%      0.0%      0.0%
 matmuls total                              11574       0.0%    100.0%      0.0%
 number of processed stacks                   492       0.0%    100.0%      0.0%
 average stack size                                     0.0      23.5       0.0
 marketing flops                     6.461856E+06
 -------------------------------------------------------------------------------
 # multiplications                            108
 max memory usage/rank              13.670494E+09
 # max total images/rank                        1
 # max 3D layers                                1
 # MPI messages exchanged                       0
 -------------------------------------------------------------------------------
 -                                                                             -
 -                      DBCSR MESSAGE PASSING PERFORMANCE                      -
 -                                                                             -
 -------------------------------------------------------------------------------
 ROUTINE             CALLS      AVE VOLUME [Bytes]
 MP_Bcast               13                     12.
 MP_Allreduce          553                      9.
 MP_Alltoall          3795                   7168.
 MP_ISend              432                    647.
 MP_IRecv              432                    647.
 -------------------------------------------------------------------------------

 -------------------------------------------------------------------------------
 -                                                                             -
 -                          OFFLOAD MEMPOOL STATISTICS                         -
 -                                                                             -
 -------------------------------------------------------------------------------
 Memory consumption                Number of allocations  Used [MiB]  Size [MiB]
 Device                                                1           0           0
 Host                                                  1           0           0
 -------------------------------------------------------------------------------

 MEMORY| Estimated peak process memory [MiB]                                 163

 -------------------------------------------------------------------------------
 -                                                                             -
 -                         MESSAGE PASSING PERFORMANCE                         -
 -                                                                             -
 -------------------------------------------------------------------------------

 ROUTINE             CALLS      AVE VOLUME [Bytes]
 MP_Group                1
 MP_Bcast              180                    151.
 MP_Allreduce         2870                     89.
 MP_Sync                94
 MP_comm_split          93
 -------------------------------------------------------------------------------


 -------------------------------------------------------------------------------
 -                                                                             -
 -                           R E F E R E N C E S                               -
 -                                                                             -
 -------------------------------------------------------------------------------
 
 CP2K version 2026.1 (Development Version), the CP2K developers group (2026).
 CP2K is freely available from https://www.cp2k.org/ .
 
 M. Iannuzzi, J. Wilhelm, F. Stein, A. Bussy, H. Elgabarty, D. Golze, A. Hehn, 
 M. Graml, S. Marek, B. Sertcan Gökmen, C. Schran, H. Forbert, R. Z. 
 Khaliullin, A. Kozhevnikov, M. Taillefumier, R. Meli, V. V. Rybkin, M. Brehm, 
 R. Schade, O. Schütt, J. V. Pototschnig, H. Mirhosseini, A. Knüpfer, D. Marx, 
 M. Krack, J. Hutter, T. D. Kühne.
 J. Phys. Chem. B 130, 1237-1310 (2026).
 The CP2K Program Package Made Simple.
 https://doi.org/10.1021/acs.jpcb.5c05851

 A. Katbashev, M. Stahn, T. Rose, V. Alizadeh, M. Friede, C. Plett, P. 
 Steinbach, S. Ehlert.
 J. Phys. Chem. A 129, 2667-2682 (2025).
 Overview on Building Blocks and Applications of Efficient and Robust Extended 
 Tight Binding.
 https://doi.org/10.1021/acs.jpca.4c08263

 T. D. Kühne, M. Iannuzzi, M. Del Ben, V. V. Rybkin, P. Seewald, F. Stein, T. 
 Laino, R. Z. Khaliullin, O. Schütt, F. Schiffmann, D. Golze, J. Wilhelm, S. 
 Chulkov, M. H. Bani-Hashemian, V. Weber, U. Borstnik, M. Taillefumier, A. S. 
 Jakobovits, A. Lazzaro, H. Pabst, T. Müller, R. Schade, M. Guidon, S. 
 Andermatt, N. Holmberg, G. K. Schenter, A. Hehn, A. Bussy, F. Belleflamme, G. 
 Tabacchi, A. Glöß, M. Lass, I. Bethune, C. J. Mundy, C. Plessl, M. Watkins, 
 J. VandeVondele, M. Krack, J. Hutter.
 J. Chem. Phys. 152, 194103 (2020).
 CP2K: An electronic structure and molecular dynamics software package - 
 Quickstep: Efficient and accurate electronic structure calculations.
 https://doi.org/10.1063/5.0007045

 P. Pracht, E. Caldeweyher, S. Ehlert, S. Grimme.
 ChemRxiv, (2019).
 A Robust Non-Self-Consistent Tight-Binding Quantum Chemistry Method for large 
 Molecules.
 https://doi.org/10.26434/chemrxiv.8326202.v1

 S. Grimme, C. Bannwarth, P. Shushkov.
 J. Chem. Theory Comput. 13, 1989 (2017).
 A Robust and Accurate Tight-Binding Quantum Chemical Method for Structures, 
 Vibrational Frequencies, and Noncovalent Interactions of Large Molecular 
 Systems Parametrized for All spd-Block Elements (Z = 1-86).
 https://doi.org/10.1021/acs.jctc.7b00118

 O. Schuett, P. Messmer, J. Hutter, J. VandeVondele.
 Electronic Structure Calculations on Graphics Processing Units, 173-190 (2016).
 GPU-Accelerated Sparse Matrix-Matrix Multiplication for Linear Scaling Density 
 Functional Theory.
 https://doi.org/10.1002/9781118670712.ch8

 A. Heinecke, G. Henry, M. Hutchinson, H. Pabst.
 Proceedings of Intl. Supercomputing Conference, 981-991 (2016).
 LIBXSMM: Accelerating Small Matrix Multiplications by Runtime Code Generation.
 https://doi.org/10.1109/SC.2016.83

 U. Borstnik, J. VandeVondele, V. Weber, J. Hutter.
 Parallel Comput. 40, 47-58 (2014).
 Sparse matrix multiplication: The distributed block-compressed sparse row 
 library.
 https://doi.org/10.1016/j.parco.2014.03.012

 T. D. Kühne, M. Krack, F. R. Mohamed, M. Parrinello.
 Phys. Rev. Lett. 98, 066401 (2007).
 Efficient and accurate Car-Parrinello-like approach to Born-Oppenheimer 
 molecular dynamics.
 https://doi.org/10.1103/PhysRevLett.98.066401

 M. Frigo, S. G. Johnson.
 Proc. IEEE 93, 216-231 (2005).
 The design and implementation of FFTW3.
 https://doi.org/10.1109/JPROC.2004.840301

 J. Kolafa.
 J. Comput. Chem. 25, 335-342 (2004).
 Time-reversible always stable predictor-corrector method for molecular dynamics 
 of polarizable molecules.
 https://doi.org/10.1002/jcc.10385

 N. D. Mermin.
 Phys. Rev. 137, A1441-A1443 (1965).
 Thermal Properties of the Inhomogeneous Electron Gas.
 https://doi.org/10.1103/PhysRev.137.A1441


 -------------------------------------------------------------------------------
 -                                                                             -
 -                                T I M I N G                                  -
 -                                                                             -
 -------------------------------------------------------------------------------
 SUBROUTINE                       CALLS  ASD         SELF TIME        TOTAL TIME
                                MAXIMUM       AVERAGE  MAXIMUM  AVERAGE  MAXIMUM
 CP2K                                 1  1.0    0.001    0.001    0.107    0.107
 cp_geo_opt                           1  2.0    0.000    0.000    0.102    0.102
 geoopt_bfgs                          1  3.0    0.001    0.001    0.101    0.101
 cp_eval_at                           6  4.0    0.000    0.000    0.098    0.098
 qs_forces                            5  5.0    0.000    0.000    0.094    0.094
 qs_energies                          6  5.8    0.000    0.000    0.089    0.089
 scf_env_do_scf                       6  6.8    0.000    0.000    0.074    0.074
 scf_env_do_scf_inner_loop           83  8.0    0.007    0.007    0.074    0.074
 qs_scf_new_mos                      83  9.0    0.000    0.000    0.050    0.050
 cp_dbcsr_plus_fm_fm_t               93 10.9    0.000    0.000    0.025    0.025
 calculate_dm_sparse                 88 10.0    0.000    0.000    0.024    0.024
 dbcsr_multiply_generic             108 11.9    0.001    0.001    0.020    0.020
 rebuild_ks_matrix                   88  9.8    0.000    0.000    0.017    0.017
 build_tblite_ks_matrix              88 10.8    0.016    0.016    0.017    0.017
 qs_ks_update_qs_env                 83  9.0    0.000    0.000    0.014    0.014
 copy_dbcsr_to_fm                   181 10.5    0.000    0.000    0.013    0.013
 dbcsr_complete_redistribute        382 12.2    0.007    0.007    0.013    0.013
 make_m2s                           216 12.9    0.001    0.001    0.011    0.011
 eigensolver                         83 10.0    0.001    0.001    0.011    0.011
 cp_fm_syevd                         93 10.7    0.000    0.000    0.010    0.010
 build_tblite_matrices               11  7.0    0.004    0.004    0.009    0.009
 qs_diis_b_step                      77 10.0    0.000    0.000    0.009    0.009
 cp_fm_syevd_base                    93 11.7    0.007    0.007    0.007    0.007
 init_scf_run                         6  6.8    0.000    0.000    0.007    0.007
 copy_fm_to_dbcsr                   201 11.8    0.000    0.000    0.006    0.006
 scf_env_initial_rho_setup            6  7.8    0.000    0.000    0.006    0.006
 wfi_extrapolate                      6  8.8    0.000    0.000    0.006    0.006
 qs_energies_init_hamiltonians        6  6.8    0.000    0.000    0.006    0.006
 tb_get_multipole                    11  8.0    0.004    0.004    0.005    0.005
 make_images                        216 13.9    0.001    0.001    0.005    0.005
 dbcsr_finalize                    1970 12.4    0.001    0.001    0.004    0.004
 qs_ks_update_qs_env_forces           5  6.0    0.000    0.000    0.004    0.004
 multiply_cannon                    108 12.9    0.002    0.002    0.004    0.004
 cp_dbcsr_sm_fm_multiply             15 10.3    0.000    0.000    0.004    0.004
 dbcsr_desymmetrize_deep            181 11.5    0.002    0.002    0.003    0.003
 dbcsr_crop_matrix                  186 13.9    0.000    0.000    0.003    0.003
 dbcsr_create_new                  2881 13.1    0.002    0.002    0.003    0.003
 qs_init_subsys                       1  2.0    0.000    0.000    0.003    0.003
 dbcsr_copy_submatrix               186 14.9    0.001    0.001    0.003    0.003
 parallel_gemm_fm_gemm              189 10.7    0.000    0.000    0.002    0.002
 reorthogonalize_vectors              5  9.8    0.000    0.000    0.002    0.002
 make_basis_lowdin                    5 10.8    0.000    0.000    0.002    0.002
 dbcsr_merge_all                    661 14.9    0.001    0.001    0.002    0.002
 cp_fm_gemm                         189 11.7    0.002    0.002    0.002    0.002
 -------------------------------------------------------------------------------

 The number of warnings for this run is : 0
 
 -------------------------------------------------------------------------------
  **** **** ******  **  PROGRAM ENDED AT                 2026-05-23 22:46:21.551
 ***** ** ***  *** **   PROGRAM RAN ON                                spark-c86c
 **    ****   ******    PROGRAM RAN BY                                  kuehne88
 ***** **    ** ** **   PROGRAM PROCESS ID                               2229817
  **** **  *******  **  PROGRAM STOPPED IN /home/kuehne88/periodic-gfn2-benchmar
                                           ks/X23b/runs/molecule_geoopt/GFN2/ura
                                           cil_GFN2_mol_geoopt
